#     Step Nr.          Time[fs]        Kin.[a.u.]          Temp[K]            Pot.[a.u.]        Cons Qty[a.u.]        UsedTime[s]
         0            0.000000         3.844830508       300.000000000     -1263.096099665     -1259.250794135         0.000000000
         1            1.000000         4.233411521       330.319751076     -1263.684805493     -1259.450010331        63.658114910
         2            2.000000         3.944618562       307.786147178     -1263.334114182     -1259.387128397        13.921383716
         3            3.000000         3.781338421       295.045912661     -1263.091137410     -1259.306478896        13.371102545
         4            4.000000         4.406430727       343.819894109     -1263.991287088     -1259.580517911        14.621231049
         5            5.000000         3.920569686       305.909689189     -1263.285721425     -1259.359688112        13.978722472
         6            6.000000         3.956046570       308.677838614     -1263.383373284     -1259.420768980        13.973682810
         7            7.000000         4.092966180       319.361243997     -1263.610604260     -1259.509936339        13.952015359
         8            8.000000         3.674470270       286.707327865     -1262.990024013     -1259.306712368        13.988316264
         9            9.000000         4.176565263       325.884216815     -1263.717901459     -1259.531354120        13.983632367
        10           10.000000         3.852126752       300.569302880     -1263.308230395     -1259.444908359        14.619386412
        11           11.000000         3.544791363       276.588891674     -1262.895826210     -1259.338719837        14.614108335
        12           12.000000         4.109973129       320.688242584     -1263.685456136     -1259.562048185        13.965870872
        13           13.000000         3.733854036       291.340855797     -1263.055483372     -1259.307017723        13.371028878
        14           14.000000         3.876934920       302.505005975     -1263.283618235     -1259.390939588        13.993473798
        15           15.000000         3.936742741       307.171621662     -1263.420350974     -1259.466698582        13.970220488
        16           16.000000         3.448834726       269.101697851     -1262.718491084     -1259.251640581        13.997329257
        17           17.000000         4.046863695       315.764012492     -1263.552029615     -1259.486080122        13.388899390
        18           18.000000         3.858546154       301.070188563     -1263.346817389     -1259.468036399        15.180657215
        19           19.000000         3.565241015       278.184513513     -1262.918244527     -1259.331690261        15.324348342
        20           20.000000         4.002314878       312.288008740     -1263.562176133     -1259.537487402        15.257162858
        21           21.000000         3.641550386       284.138693082     -1263.000640309     -1259.335634288        14.609049149
        22           22.000000         3.954946335       308.591990717     -1263.373481896     -1259.394029834        13.456460644
        23           23.000000         4.036611395       314.964057780     -1263.515082079     -1259.452844622        13.996010501
        24           24.000000         3.459156995       269.907111989     -1262.688206892     -1259.202352799        13.360400956
        25           25.000000         4.025535564       314.099845643     -1263.510018079     -1259.456765471        13.975062132
        26           26.000000         3.951512159       308.324032825     -1263.384354298     -1259.404018413        13.993263606
        27           27.000000         3.786951622       295.483893000     -1263.149382490     -1259.332515981        14.036592185
        28           28.000000         4.124563728       321.826700966     -1263.666300954     -1259.510707294        14.615442026
        29           29.000000         3.605776545       281.347373130     -1262.951865079     -1259.313936475        15.277942147
        30           30.000000         3.978472266       310.427644943     -1263.454320997     -1259.442622919        15.256784629
        31           31.000000         4.212760973       328.708453931     -1263.792082314     -1259.544912622        14.645915452
        32           32.000000         3.631387381       283.345705844     -1262.988763807     -1259.321783454        15.203483645
        33           33.000000         4.031068552       314.531567232     -1263.595778256     -1259.527980073        15.311315849
        34           34.000000         3.902123596       304.470398967     -1263.382072152     -1259.442019774        15.226988032
        35           35.000000         3.889708892       303.501718780     -1263.319854438     -1259.391026868        14.634222541
        36           36.000000         4.286794899       334.485087688     -1263.915803835     -1259.588623393        14.613631837
        37           37.000000         3.622354150       282.640871321     -1263.016514012     -1259.352489203        14.619072728
        38           38.000000         3.854391610       300.746022651     -1263.379693665     -1259.482440769        15.283518389
        39           39.000000         4.127494214       322.055357610     -1263.748301157     -1259.576674374        15.249956463
        40           40.000000         3.716839083       290.013232706     -1263.142960982     -1259.380703539        15.254108820
        41           41.000000         4.077088888       318.122388973     -1263.712295917     -1259.588520894        14.669241164
        42           42.000000         3.710815180       289.543206526     -1263.207618840     -1259.448826013        15.206177190
        43           43.000000         3.665725478       286.024999300     -1263.126523870     -1259.411619084        15.900204979
        44           44.000000         4.209462763       328.451105006     -1263.839262728     -1259.579363222        17.106411859
        45           45.000000         3.615807505       282.130057245     -1262.965198894     -1259.297664589        17.738655802
        46           46.000000         3.724037480       290.574900929     -1263.182774732     -1259.405831508        17.150153134
        47           47.000000         3.862673668       301.392245519     -1263.388667679     -1259.471896993        15.276388068
        48           48.000000         3.564216637       278.104584520     -1262.932766295     -1259.313297518        15.286021743
        49           49.000000         4.096656694       319.649203139     -1263.664732074     -1259.511671829        14.605432246
        50           50.000000         3.718792989       290.165689835     -1263.151221731     -1259.374827113        14.651951283
        51           51.000000         3.543717533       276.505104109     -1262.908199347     -1259.305789984        14.670789041
        52           52.000000         4.070821318       317.633350231     -1263.629756478     -1259.499147628        13.971470997
        53           53.000000         3.664791592       285.952131120     -1263.017841007     -1259.292131284        14.000076938
        54           54.000000         3.863153965       301.429721514     -1263.342146829     -1259.416999775        14.612792496
        55           55.000000         3.871289778       302.064533400     -1263.354234669     -1259.419853156        13.299371608
        56           56.000000         3.500371867       273.122978458     -1262.823203861     -1259.258701411        13.990314979
        57           57.000000         4.120271832       321.491817861     -1263.654315203     -1259.468888045        14.047650103
        58           58.000000         3.823618160       298.344867379     -1263.216368907     -1259.326498944        13.359966673
        59           59.000000         3.612345323       281.859914097     -1262.979889160     -1259.300272166        13.330359515
        60           60.000000         4.017334573       313.459948222     -1263.571832658     -1259.486216101        14.049758721
        61           61.000000         3.620664141       282.509005256     -1262.963121111     -1259.273153891        13.963636879
        62           62.000000         3.962691142       309.196293582     -1263.442989428     -1259.410012650        13.351141892
        63           63.000000         3.955961714       308.671217494     -1263.428751817     -1259.401468145        13.402992327
        64           64.000000         3.472983556       270.985954888     -1262.749623600     -1259.204340360        13.312085781
        65           65.000000         4.063691770       317.077054070     -1263.570545660     -1259.433614721        13.346656922
        66           66.000000         3.863858405       301.484686771     -1263.246651119     -1259.308545478        12.723754924
        67           67.000000         3.714783799       289.852865400     -1263.033025968     -1259.243031124        12.771756072
        68           68.000000         4.008271740       312.752803870     -1263.494439292     -1259.409994609        12.772593293
        69           69.000000         3.554327908       277.332998204     -1262.766528949     -1259.135077240        12.735728443
        70           70.000000         3.986728002       311.071814001     -1263.422588056     -1259.357828941        13.383762524
        71           71.000000         4.072238488       317.743927524     -1263.534021862     -1259.382766947        13.342237651
        72           72.000000         3.564256931       278.107728567     -1262.802441797     -1259.158209534        13.378544182
        73           73.000000         4.011116726       312.974789180     -1263.395891368     -1259.303885497        12.804808851
        74           74.000000         3.798714679       296.401727264     -1263.126173158     -1259.245615368        13.316608757
        75           75.000000         3.790790626       295.783438390     -1263.111238375     -1259.237686890        13.348394014
        76           76.000000         4.085356755       318.767504508     -1263.596113026     -1259.427051674        14.019109022
        77           77.000000         3.485198428       271.939042873     -1262.763235165     -1259.193404843        13.372824207
        78           78.000000         3.847674881       300.221937458     -1263.275612236     -1259.342458883        13.353485886
        79           79.000000         4.022233354       313.842184582     -1263.491292676     -1259.382681265        12.819365080
        80           80.000000         3.615381544       282.096820894     -1262.898224904     -1259.195576696        12.728307519
        81           81.000000         3.993847296       311.627310038     -1263.503022466     -1259.421054745        13.397747546
        82           82.000000         3.667284773       286.146666193     -1263.062908902     -1259.306637001        13.983005334
        83           83.000000         3.721723413       290.394341574     -1263.113207581     -1259.301691291        13.386633780
        84           84.000000         4.128245651       322.113989844     -1263.697893048     -1259.479019641        13.987326015
        85           85.000000         3.526274575       275.144085083     -1262.861977800     -1259.244235181        13.378340747
        86           86.000000         3.776960804       294.704340995     -1263.251629634     -1259.382444738        13.499186821
        87           87.000000         3.916159007       305.565537860     -1263.422333572     -1259.413175004        13.352345172
        88           88.000000         3.662103623       285.742397342     -1263.025537340     -1259.269670583        13.428090762
        89           89.000000         4.095633709       319.569382813     -1263.671684598     -1259.481530606        13.378202345
        90           90.000000         3.655293839       285.211051432     -1263.077455147     -1259.326860951        13.414520532
        91           91.000000         3.651190211       284.890858250     -1263.061431296     -1259.314235659        12.751951601
        92           92.000000         4.127921205       322.088674314     -1263.736134577     -1259.511488924        13.421336822
        93           93.000000         3.652199455       284.969606382     -1263.045204121     -1259.295532779        12.807213385
        94           94.000000         3.854535448       300.757245876     -1263.374970760     -1259.422268000        12.746251814
        95           95.000000         3.823429859       298.330174808     -1263.338053429     -1259.415753288        12.775673967
        96           96.000000         3.578533233       279.221663384     -1262.965810719     -1259.287742899        13.392491728
        97           97.000000         4.125856281       321.927554856     -1263.739689986     -1259.513645884        13.351974547
        98           98.000000         3.688752744       287.821744223     -1263.147755655     -1259.358124894        13.412556343
        99           99.000000         3.561000292       277.853623247     -1263.007563528     -1259.345070887        13.406436943
       100          100.000000         3.957674607       308.804869166     -1263.669623526     -1259.609866631        15.310062647
       101          101.000000         3.610136638       281.687577425     -1263.078563785     -1259.365750614        14.666887578
       102          102.000000         3.932666392       306.853557055     -1263.549418667     -1259.513517232        15.995265003
       103          103.000000         3.818307810       297.930517501     -1263.420026118     -1259.497906230        14.068027224
       104          104.000000         3.464773481       270.345348659     -1262.941205435     -1259.372091389        14.785383195
       105          105.000000         4.046173742       315.710177587     -1263.733202173     -1259.582198569        14.652967773
       106          106.000000         3.774017187       294.474659835     -1263.349760896     -1259.470388208        15.304367032
       107          107.000000         3.682738325       287.352458063     -1263.249560493     -1259.460977912        14.730787255
       108          108.000000         3.916633897       305.602592002     -1263.595739147     -1259.572790229        14.050892062
       109          109.000000         3.531771365       275.572982293     -1262.961413017     -1259.322868876        14.041273069
       110          110.000000         3.983343574       310.807737746     -1263.581454751     -1259.490920804        13.424234752
       111          111.000000         3.924215912       306.194192725     -1263.532510793     -1259.500652349        13.411246192
       112          112.000000         3.483523912       271.808385684     -1262.934526479     -1259.342932660        13.451509245
       113          113.000000         3.939830518       307.412551208     -1263.577858833     -1259.529581724        13.408407647
       114          114.000000         3.706702800       289.222330519     -1263.209448202     -1259.393911044        13.436211586
       115          115.000000         3.759784269       293.364110153     -1263.280916384     -1259.411941461        13.420299191
       116          116.000000         3.972539018       309.964692299     -1263.644390784     -1259.562307464        13.390870538
       117          117.000000         3.478148739       271.388977853     -1262.936871438     -1259.348831811        13.492749788
       118          118.000000         3.928431046       306.523086312     -1263.591811875     -1259.553196189        14.668187715
       119          119.000000         3.981069165       310.630272737     -1263.581075090     -1259.489502084        14.092774864
       120          120.000000         3.596417204       280.617093213     -1263.000733709     -1259.293492638        13.476083249
       121          121.000000         3.924652158       306.228231617     -1263.569704146     -1259.533943896        14.069985285
       122          122.000000         3.613080660       281.917290146     -1263.099019231     -1259.374547058        13.483375613
       123          123.000000         3.761498793       293.497889011     -1263.296613170     -1259.423480948        14.050718706
       124          124.000000         4.059341937       316.737650347     -1263.719788514     -1259.548570979        13.433083758
       125          125.000000         3.521936770       274.805619835     -1262.952753004     -1259.318685586        13.395191398
       126          126.000000         3.841338670       299.727542836     -1263.427662853     -1259.473989103        13.441752572
       127          127.000000         3.899201959       304.242432807     -1263.485101997     -1259.473358224        14.132622290
       128          128.000000         3.668945908       286.276279294     -1263.167767872     -1259.386075550        14.016037896
       129          129.000000         3.995410794       311.749304842     -1263.694315141     -1259.585973235        14.108957227
       130          130.000000         3.546676103       276.735951982     -1263.073236325     -1259.413437680        14.028802957
       131          131.000000         3.657813079       285.407619784     -1263.216715701     -1259.445641344        14.108604755
       132          132.000000         4.046093964       315.703952783     -1263.749638093     -1259.590165590        13.426646274
       133          133.000000         3.606889903       281.434244880     -1263.111793541     -1259.391389827        14.092313163
       134          134.000000         3.871309592       302.066079425     -1263.504610428     -1259.519684955        13.385593675
       135          135.000000         3.824196514       298.389994495     -1263.401831596     -1259.463917057        13.422710594
       136          136.000000         3.654989472       285.187302604     -1263.171588144     -1259.402788797        14.728360318
       137          137.000000         4.114501459       321.041573911     -1263.826472710     -1259.598088918        14.671636391
       138          138.000000         3.678268994       287.003730300     -1263.221435602     -1259.429180386        15.420397494
       139          139.000000         3.682735394       287.352229378     -1263.262334165     -1259.465536145        14.679075021
       140          140.000000         4.017990599       313.511135825     -1263.721417857     -1259.589309234        14.700191263
       141          141.000000         3.682327900       287.320433941     -1263.226149466     -1259.429630634        15.393852152
       142          142.000000         3.970878905       309.835158874     -1263.688688508     -1259.603563410        15.350439891
       143          143.000000         3.794375474       296.063152778     -1263.465272548     -1259.556581435        14.713784497
       144          144.000000         3.567758013       278.380906921     -1263.134534549     -1259.452405979        14.715057697
       145          145.000000         4.074319131       317.906273514     -1263.819766546     -1259.631057234        14.746579435
       146          146.000000         3.741696729       291.952796455     -1263.333210032     -1259.477077942        15.325988587
       147          147.000000         3.734173266       291.365764330     -1263.308514990     -1259.459875381        14.696538825
       148          148.000000         3.937732513       307.248850453     -1263.586896271     -1259.534682566        15.364243448
       149          149.000000         3.602300026       281.076111313     -1263.080867726     -1259.364066828        14.720146500
       150          150.000000         3.968425643       309.643738622     -1263.587185542     -1259.504270081        14.063990574
       151          151.000000         3.801720382       296.636252792     -1263.401718189     -1259.485507681        14.725624476
       152          152.000000         3.509387272       273.826422077     -1262.983745474     -1259.359878561        14.714338075
       153          153.000000         3.978965740       310.466149107     -1263.655357669     -1259.561970300        15.329660900
       154          154.000000         3.747125542       292.376389618     -1263.256617796     -1259.395120575        14.728581276
       155          155.000000         3.834239567       299.173622277     -1263.379717927     -1259.431166836        15.345372580
       156          156.000000         3.990854997       311.393830399     -1263.617219811     -1259.512115348        15.332086131
       157          157.000000         3.607824047       281.507133211     -1263.085444139     -1259.363415072        15.411336213
       158          158.000000         4.021316446       313.770641149     -1263.654865105     -1259.519415439        14.692089621
       159          159.000000         3.918361824       305.737416668     -1263.520225413     -1259.487781666        14.735239491
       160          160.000000         3.601407375       281.006460564     -1263.097845774     -1259.382395466        14.718776897
       161          161.000000         3.939511216       307.387637019     -1263.611835670     -1259.558352377        15.319037996
       162          162.000000         3.700445790       288.734115732     -1263.217194683     -1259.402843599        15.278491512
       163          163.000000         3.884964233       303.131508012     -1263.466633909     -1259.467848476        15.370100357
       164          164.000000         4.023702586       313.956824157     -1263.650062921     -1259.512619174        14.619981762
       165          165.000000         3.560334766       277.801694379     -1263.015559767     -1259.341539807        15.350826509
       166          166.000000         3.916113640       305.561997951     -1263.525396517     -1259.495688337        14.037798885
       167          167.000000         3.888438521       303.402595688     -1263.463191890     -1259.461248057        14.060632493
       168          168.000000         3.679454189       287.096207290     -1263.167919394     -1259.375041838        14.102886464
       169          169.000000         3.949742758       308.185971987     -1263.603931188     -1259.540868320        14.035252918
       170          170.000000         3.600250057       280.916158637     -1263.106923054     -1259.393449054        14.053509675
       171          171.000000         3.813881469       297.585144063     -1263.377599464     -1259.450621943        14.097920675
       172          172.000000         4.070144255       317.580521135     -1263.717595579     -1259.534495553        14.124398287
       173          173.000000         3.634217202       283.566507863     -1263.132681240     -1259.385617218        14.669886619
       174          174.000000         3.871592337       302.088141071     -1263.504122136     -1259.519813433        15.302524470
       175          175.000000         3.813289886       297.538984737     -1263.394523073     -1259.468651725        15.362017825
       176          176.000000         3.726137080       290.738726098     -1263.226788251     -1259.388208362        15.330272429
       177          177.000000         4.046995686       315.774311317     -1263.699789156     -1259.540506635        15.398089029
       178          178.000000         3.631838419       283.380898953     -1263.142777012     -1259.398783354        14.636529155
       179          179.000000         3.741205082       291.914434742     -1263.309608053     -1259.456401934        14.733742744
       180          180.000000         3.995283997       311.739411305     -1263.657275059     -1259.550168201        15.284082551
       181          181.000000         3.683924217       287.444989500     -1263.201908068     -1259.406321304        14.722572245
       182          182.000000         3.923548717       306.142133575     -1263.605216105     -1259.570181293        14.003290668
       183          183.000000         3.739644365       291.792656945     -1263.315781841     -1259.464823253        14.644786637
       184          184.000000         3.640422349       284.050675899     -1263.160837946     -1259.409284326        15.297574960
       185          185.000000         4.060259824       316.809270163     -1263.716069328     -1259.544896388        15.274043042
       186          186.000000         3.702178295       288.869297672     -1263.194244119     -1259.381348110        15.269992355
       187          187.000000         3.741616346       291.946524375     -1263.332474638     -1259.480345201        15.326549497
       188          188.000000         3.906031819       304.775345288     -1263.528606707     -1259.512288646        15.276070375
       189          189.000000         3.652167355       284.967101729     -1263.139184556     -1259.376952500        15.323741894
       190          190.000000         3.964245304       309.317559941     -1263.652273226     -1259.578209968        15.372723635
       191          191.000000         3.764909915       293.764048129     -1263.407007348     -1259.532517844        15.241228808
       192          192.000000         3.601276948       280.996283737     -1263.202141194     -1259.491525302        15.296475302
       193          193.000000         3.980008071       310.547478915     -1263.576293060     -1259.487227774        15.295105748
       194          194.000000         3.730552122       291.083217889     -1263.200467620     -1259.361132419        19.068320509
       195          195.000000         3.810776791       297.342895799     -1263.310320907     -1259.391042607        15.296146221
       196          196.000000         3.873547502       302.240696440     -1263.430422325     -1259.448666481        15.278717406
       197          197.000000         3.594229567       280.446398833     -1263.012078119     -1259.309926743        14.645317286
       198          198.000000         3.973509499       310.040415852     -1263.520532815     -1259.439424360        14.618929908
       199          199.000000         3.844587870       299.981067663     -1263.331479935     -1259.379612286        14.662739448
       200          200.000000         3.647470270       284.600602997     -1263.042430740     -1259.287987152        14.704575121
       201          201.000000         3.936556767       307.157110702     -1263.452642882     -1259.409449186        14.021610383
       202          202.000000         3.718659765       290.155294772     -1263.099055142     -1259.274091232        15.294514004
       203          203.000000         3.897852776       304.137160367     -1263.350173090     -1259.346361479        14.646614354
       204          204.000000         3.949527708       308.169192320     -1263.426354387     -1259.371214953        14.652074534
       205          205.000000         3.590965477       280.191712170     -1262.934414307     -1259.238159083        14.627037041
       206          206.000000         3.909230399       305.024920406     -1263.412853928     -1259.398686446        14.662388079
       207          207.000000         3.823176197       298.310382368     -1263.263802835     -1259.336049152        14.006798465
       208          208.000000         3.677829951       286.969473117     -1263.056692157     -1259.274638154        13.952972680
       209          209.000000         3.897523489       304.111467083     -1263.412592796     -1259.411225254        14.048559181
       210          210.000000         3.627368445       283.032121000     -1263.019700073     -1259.288865480        13.977754310
       211          211.000000         3.817695041       297.882705044     -1263.268682593     -1259.347925506        14.017309971
       212          212.000000         3.928417048       306.521994084     -1263.433268548     -1259.402216069        14.033539578
       213          213.000000         3.595934899       280.579460524     -1262.976724283     -1259.278561626        14.013448946
       214          214.000000         3.843492689       299.895614175     -1263.351756421     -1259.406472454        14.667250231
       215          215.000000         3.758227805       293.242664128     -1263.214735996     -1259.355170041        13.993937470
       216          216.000000         3.695501555       288.348332670     -1263.116002256     -1259.319621939        13.387703676
       217          217.000000         3.918110554       305.717810900     -1263.462116450     -1259.443617778        13.398625854
       218          218.000000         3.601583606       281.020211279     -1263.027058492     -1259.325568811        13.399638262
       219          219.000000         3.774342698       294.500058455     -1263.259010137     -1259.385268255        13.365276475
       220          220.000000         3.915702849       305.529945216     -1263.445256911     -1259.430696756        13.435366206
       221          221.000000         3.647218938       284.580992358     -1263.051824683     -1259.306276130        13.996680629
       222          222.000000         3.868751342       301.866467240     -1263.391690813     -1259.425159860        13.385152642
       223          223.000000         3.730521600       291.080836393     -1263.190092273     -1259.362349848        14.071056165
       224          224.000000         3.701196599       288.792699040     -1263.129584611     -1259.331731822        13.994121481
       225          225.000000         3.969451793       309.723805884     -1263.549130101     -1259.483624774        13.991080347
       226          226.000000         3.662392563       285.764942405     -1263.075130205     -1259.317271822        14.648024820
       227          227.000000         3.775062322       294.556208424     -1263.184062856     -1259.314131370        13.962648433