    2699
 i =        0, time =        0.000, E =     -1263.0960996653
  C        10.9970610000       11.0856390000       10.2950690000
  O        10.7997480000       12.1750600000        9.9552490000
  O        14.2159170000       11.8966010000       10.6877670000
  N        10.7709910000       10.4777240000       11.5537050000
  H        14.6497400000       12.2971810000        9.8686350000
  H        10.9007180000        9.4217560000       11.3110180000
  H        10.0318640000       10.8295540000       12.2134680000
  N        11.7665070000       10.0486290000        9.5063460000
  H        13.6706150000       11.2825010000        9.8703630000
  H        11.7273430000        9.0296230000        9.2788820000
  H        11.8561000000       10.5306630000        8.5558670000
  O        27.7988050000       14.4232890000        1.9292950000
  H        27.5787490000       14.3764320000        0.9445000000
  H        28.0732540000       13.4953600000        2.1080460000
  O         0.1555810000       19.2007200000       -0.1859370000
  H         0.0045020000       19.8679330000        0.4874630000
  H         1.1108840000       19.1197810000       -0.1613570000
  O         0.5178180000        8.3735230000      -10.9947650000
  H        -0.0121580000        8.4270720000      -11.7758790000
  H         0.0460980000        9.0162520000      -10.4698740000
  O        26.9637130000       21.9745430000       -7.5760170000
  H        26.8839260000       21.9607910000       -6.5553890000
  H        25.9700780000       22.1404480000       -7.7243610000
  O        23.1417680000        7.6628550000        9.6958630000
  H        22.3265820000        8.0993180000        9.9505570000
  H        22.8233090000        7.1999320000        8.8913560000
  O        16.2752780000       -2.8853860000        9.8372870000
  H        15.5731610000       -2.3596050000        9.3287050000
  H        16.2109890000       -3.7829280000        9.4176360000
  O        -2.5322840000       23.2931290000       -5.0844350000
  H        -2.4146700000       23.1163230000       -4.1221010000
  H        -3.1410450000       24.0741080000       -5.0231980000
  O        -0.5797830000       10.0929930000       -1.0753600000
  H        -0.9361710000        9.9292540000       -1.9581140000
  H        -0.6401360000       11.0861990000       -1.0352230000
  O        26.8511410000        2.3450240000       -3.6219850000
  H        26.1516510000        2.6695170000       -4.1904320000
  H        26.4285280000        1.6492840000       -3.0952270000
  O        17.3625240000       23.2088970000       -4.8222270000
  H        17.6822930000       23.6343080000       -3.9828420000
  H        18.2024120000       23.1056630000       -5.3451310000
  O         0.3266350000       10.0868380000        3.0999900000
  H        -0.5912020000       10.1611670000        2.7033090000
  H         0.8486590000        9.6627310000        2.3662030000
  O         3.8362990000       14.6652190000      -13.3560060000
  H         4.4029960000       15.4218800000      -13.0632450000
  H         3.0721180000       15.1247530000      -13.7763290000
  O        21.7619460000        4.2371190000       -4.2513060000
  H        22.0205670000        4.8287500000       -3.4870130000
  H        21.3488120000        3.4874990000       -3.7424740000
  O         2.5097730000        0.5067950000      -10.1346410000
  H         2.2512840000        1.1102830000      -10.8501530000
  H         2.6357540000        1.2148330000       -9.4667200000
  O        21.0410800000        2.1373410000       -2.6733310000
  H        21.6395470000        1.7926190000       -2.0451340000
  H        20.8288120000        1.3186390000       -3.1235970000
  O        10.8647720000       -0.7752730000      -10.4794140000
  H        11.4753570000        0.0232020000      -10.4074780000
  H        10.0266700000       -0.4079190000      -10.1528020000
  O        -2.0211290000       22.5456750000       -2.5521020000
  H        -2.1385730000       21.6098270000       -2.8187310000
  H        -1.1176080000       22.3977180000       -2.2122330000
  O        26.2322620000       -3.2752250000       -5.9388120000
  H        25.5102120000       -2.5501530000       -5.9517590000
  H        27.0649340000       -2.7419360000       -5.9997290000
  O        19.3146500000       25.7596990000       -6.9725740000
  H        18.6359620000       26.3595520000       -6.7331710000
  H        20.0854990000       26.1935730000       -6.7365180000
  O        15.4893310000       11.7410960000      -11.0867260000
  H        14.8883710000       11.8244260000      -11.8888340000
  H        15.3409810000       12.6359720000      -10.6624120000
  O         8.7297330000       13.5882430000      -13.6950460000
  H         8.0516300000       14.1231330000      -14.2516330000
  H         9.3393340000       14.3526510000      -13.5112350000
  O        18.0632320000       26.4627990000      -14.0150460000
  H        17.8639580000       26.4024730000      -13.0555990000
  H        17.3700160000       25.9220090000      -14.4118390000
  O        21.1334820000        4.5451790000       -6.8120060000
  H        21.4836240000        4.4806270000       -5.9069240000
  H        21.1247440000        3.6055280000       -7.0332660000
  O        21.6001260000       -1.8055200000       -8.7311780000
  H        22.1247060000       -2.4180350000       -8.3111130000
  H        21.1315230000       -1.3581970000       -8.0918470000
  O        -1.7002890000        5.0307300000      -10.1816330000
  H        -1.4679390000        5.3596100000      -11.0882110000
  H        -1.0906120000        4.2238360000      -10.1609100000
  O        20.4481510000       11.7865620000       -0.7087410000
  H        20.4247060000       11.6663280000        0.2644110000
  H        21.1697560000       12.4338780000       -0.8280560000
  O        15.2954000000        7.2767990000        1.8884980000
  H        15.7023470000        6.7198740000        1.2481600000
  H        14.4647520000        7.4198670000        1.3811850000
  O         1.7280800000       26.1911140000       -2.6827830000
  H         1.3821280000       26.5661050000       -1.8790300000
  H         2.3641300000       26.8672010000       -2.9358810000
  O        26.4993170000        7.1028880000      -13.5999700000
  H        25.7977430000        7.4067200000      -13.0104430000
  H        26.1455440000        7.2642970000      -14.4589800000
  O        12.7844810000        1.2128010000       -5.5073010000
  H        13.7205830000        1.4363300000       -5.2216310000
  H        12.3097540000        1.3453360000       -4.6201620000
  O        20.5721260000       -1.5368390000       -0.7193410000
  H        20.0157340000       -2.2918640000       -0.6291540000
  H        19.9697700000       -0.8022330000       -0.6257880000
  O        -1.0576490000        5.6913870000      -12.7904530000
  H        -1.4806310000        6.5569370000      -12.7940740000
  H        -0.1570660000        5.9490730000      -12.8766370000
  O        27.5473380000       -4.1174160000       10.4467410000
  H        27.3101790000       -4.6424890000        9.6476480000
  H        27.3218820000       27.1847900000       11.1099180000
  O         6.8560930000       -2.3549940000        2.8663460000
  H         6.0071620000       -2.5350140000        2.4579010000
  H         6.7192700000       -1.7038620000        3.5076740000
  O         6.8905280000        1.7242400000       -3.2740870000
  H         7.5400920000        0.9940550000       -3.1904840000
  H         6.0575210000        1.1483370000       -3.1589910000
  O         9.3993460000       -4.7767850000      -11.9297190000
  H         9.2099910000       -4.4494680000      -11.0420740000
  H         9.3996450000       -5.6906010000      -11.8333920000
  O        25.1634220000       16.5876350000        6.3273030000
  H        25.4248160000       16.1109450000        5.5218450000
  H        25.8512900000       17.2672160000        6.3330660000
  O        23.0465770000        6.2178650000        0.3467840000
  H        23.6700310000        6.2890630000        1.0421120000
  H        22.6701700000        5.3638090000        0.5863070000
  O        24.2347180000        3.3704370000       -4.8013640000
  H        24.7228280000        4.1466970000       -4.5427240000
  H        23.3636840000        3.7690080000       -4.6807560000
  O         3.2786600000        3.3414030000      -13.8800020000
  H         4.0495210000        3.9005900000      -14.1067740000
  H         3.5769160000        2.4319080000      -13.9565070000
  O         9.6429040000        3.2529850000        3.0128330000
  H         9.9133660000        3.9713400000        2.4172440000
  H         8.7194940000        3.5438360000        3.2139030000
  O         8.2840060000       -0.7006100000       -2.8114930000
  H         8.0482070000       -0.5189650000       -1.8792760000
  H         9.2220950000       -0.6420860000       -2.8560730000
  O         3.7159910000        0.6277130000      -14.1178970000
  H         2.7949750000        0.3553350000      -14.3616540000
  H         3.7869000000        0.0085800000      -13.4330380000
  O        27.6093460000        3.7412930000       -1.4851370000
  H        28.2951240000        3.2635890000       -0.9951750000
  H        27.5600970000        3.1837600000       -2.3091050000
  O        13.3647900000       11.8439470000        0.7095700000
  H        13.1457010000       11.7253690000        1.6181120000
  H        12.8530180000       11.1675920000        0.2817110000
  O         4.8854430000        7.6633360000      -10.4241620000
  H         5.4567160000        8.3577180000      -10.7565960000
  H         4.0049990000        8.0961360000      -10.6369030000
  O        10.2364120000       15.3099990000      -10.6976670000
  H        10.0700380000       16.1177960000      -10.1223040000
  H         9.5172060000       14.7138540000      -10.3060050000
  O        27.5784470000        2.5883490000        7.7711500000
  H        26.6908990000        3.0263380000        7.9583550000
  H        27.1975140000        2.0841040000        7.0054330000
  O        20.1555600000       10.9815960000        6.5983050000
  H        20.7059780000       10.1843890000        6.9794770000
  H        20.7347740000       11.3922940000        5.9395790000
  O         9.2866670000       -4.0396860000       -9.4166860000
  H         8.8344500000       -3.2668470000       -9.1543210000
  H        10.1140770000       -3.9064840000       -8.9435250000
  O        16.8314840000       14.5620140000       -1.7688850000
  H        16.2160530000       14.0323220000       -1.1814170000
  H        16.1612150000       15.1993630000       -2.1317810000
  O         6.1735960000        8.2661070000        8.3641370000
  H         6.9420790000        8.8042590000        8.2221730000
  H         6.4895800000        7.4038190000        7.9655880000
  O         7.2908170000       18.4729120000        3.4996310000
  H         6.8541170000       18.4446930000        2.5715030000
  H         6.7133420000       19.0989510000        3.9940360000
  O         6.5613330000       25.7347350000       -2.7450880000
  H         6.9985530000       24.8201770000       -2.6014530000
  H         6.4069370000       25.6276090000       -3.7345200000
  O         7.2110740000       -2.5056750000      -13.6836830000
  H         7.3563550000       -3.1518710000      -14.3824160000
  H         7.9908280000       -2.6885000000      -13.0975790000
  O        12.7131400000       19.3599320000        4.0079270000
  H        13.3063530000       18.6146700000        4.2348190000
  H        11.8714780000       18.9037340000        3.8274160000
  O         4.3463060000       -0.8233380000        7.7318510000
  H         4.1490690000       -1.4088950000        8.4634030000
  H         3.5149290000       -0.2791920000        7.7178990000
  O        17.1116290000       -1.4278420000      -11.8285530000
  H        17.3646560000       -0.6499680000      -12.4222930000
  H        17.6153720000       -2.1855280000      -12.2241190000
  O        24.8050520000       21.6693530000      -13.7586240000
  H        25.6874850000       21.9542140000      -13.9963620000
  H        24.3944400000       22.5257260000      -13.5304780000
  O         5.5198840000       -6.8534020000        5.4635400000
  H         6.4748650000       25.1000080000        5.7118270000
  H         5.6188330000       -6.3191060000        4.6604900000
  O         2.5259330000       17.2603740000       -3.2670420000
  H         2.2574680000       17.0485800000       -4.2012650000
  H         1.6906230000       17.5907860000       -2.9478680000
  O        22.9739910000       18.0012860000        5.0700150000
  H        22.8799880000       18.7911640000        5.6507230000
  H        23.6875860000       17.4948040000        5.5017720000
  O         6.8351200000        5.9308360000        0.6245470000
  H         5.8460530000        6.1795090000        0.6522470000
  H         6.8753780000        5.3983530000       -0.2559600000
  O        25.8865890000        4.6719660000       11.0906730000
  H        26.1039850000        5.4094280000       11.6425450000
  H        26.6022130000        4.0356850000       11.2576180000
  O         4.7479730000       -2.2083020000       -1.0462730000
  H         4.4557490000       -3.0156460000       -1.5391770000
  H         5.7203890000       -2.3741920000       -1.0593840000
  O        17.3324850000       20.2526450000        2.5335870000
  H        16.4075220000       20.4348580000        2.4633160000
  H        17.4448700000       19.6565530000        1.7998430000
  O        21.6248110000       25.2147640000       -0.6348430000
  H        20.7614380000       25.4928000000       -0.9473870000
  H        21.8857500000       25.9643420000       -0.0286680000
  O        20.2809660000        8.9392910000       -4.9873940000
  H        20.7730290000        9.1688620000       -4.2382140000
  H        19.4532220000        9.3750700000       -4.7936190000
  O        10.8701120000       -0.9786750000       10.2089730000
  H        10.6102500000       -1.7211350000        9.6379530000
  H        10.2944310000       -1.0653650000       10.9945430000
  O         4.3772420000       26.5807610000       10.0311340000
  H         5.2384700000       26.2116790000        9.7282630000
  H         4.7062230000       27.0113530000       10.8608130000
  O        -0.7474030000        1.5423690000       -0.6217810000
  H        -1.5416290000        1.4265750000       -1.1987080000
  H        -1.1250490000        2.0849600000        0.0924170000
  O         6.0861210000        8.1891820000      -13.6616950000
  H         6.7627180000        8.7534810000      -13.1978980000
  H         6.7006920000        7.7022870000      -14.2437660000
  O         3.7872320000       -5.4358430000       -6.7623250000
  H         4.5661520000       -4.9449960000       -7.0844880000
  H         3.4309810000       -4.8031730000       -6.1387930000
  O        28.0289400000       15.2498390000      -14.0186820000
  H        27.7804030000       14.5711850000      -13.3216520000
  H        27.1605700000       15.6751240000      -14.1126400000
  O        14.2943860000       12.4401380000        6.7063430000
  H        14.7639560000       12.1882340000        5.8911270000
  H        14.4461950000       11.7091630000        7.3351600000
  O        12.0885010000        8.2421550000       -1.7726370000
  H        12.2633830000        9.2043020000       -2.0908210000
  H        12.1121800000        7.8381030000       -2.7112830000
  O         5.5522090000       12.7319490000      -14.0264750000
  H         4.8785540000       13.3133480000      -13.6853490000
  H         6.0118120000       13.2301080000      -14.6955170000
  O        16.9752290000       -3.4775580000       -5.0735640000
  H        16.8151150000       -3.9039160000       -6.0115390000
  H        16.3501000000       -2.7108450000       -5.1462920000
  O        23.0770320000        5.5696720000      -13.2148470000
  H        22.6768880000        6.4760550000      -13.2616880000
  H        22.6533530000        5.1078390000      -14.0328150000
  O         9.1969690000       18.7083300000       -0.9106050000
  H         8.9585960000       17.8663080000       -0.5025630000
  H         8.3945450000       18.9489540000       -1.4112110000
  O        23.1162550000       -2.6536540000      -11.8949090000
  H        23.7946760000       -1.9526820000      -11.6858080000
  H        23.3709450000       -2.7392350000      -12.8928700000
  O         9.3767500000       17.5888460000       -9.5390340000
  H        10.1172720000       18.2987060000       -9.4359360000
  H         8.8724300000       17.6886620000       -8.7256400000
  O        18.6372740000       13.5808350000        7.7592400000
  H        17.7369860000       13.1897220000        7.6452290000
  H        19.1841530000       12.7799600000        7.5044430000
  O         5.9599800000       13.2439730000        8.1431950000
  H         5.1910890000       12.7162000000        7.8685790000
  H         6.7219540000       12.6675120000        7.8530180000
  O         9.6360300000        1.2757690000        4.8364760000
  H         9.4914040000        1.7329360000        3.9664040000
  H         8.8057190000        1.5826280000        5.3517890000
  O        21.0214810000       14.2118370000        6.2878460000
  H        21.9392700000       14.1800230000        6.5875850000
  H        20.9770510000       13.2969060000        5.8976330000
  O        25.3347260000       21.3627220000        8.7766290000
  H        25.0918460000       22.2757530000        8.4710030000
  H        24.4727210000       21.2370970000        9.1673370000
  O         6.8600620000        4.0060880000       -1.3635560000
  H         6.4756470000        3.2075490000       -0.9370560000
  H         6.9053640000        3.8339860000       -2.3341490000
  O         0.9035560000       -0.7385020000        3.7466290000
  H         0.1388860000       -0.7112330000        4.4451950000
  H         0.3903550000       -1.0521250000        2.9298540000
  O        -1.1349110000       -0.5388980000        5.4651820000
  H        -2.0168490000       -0.1173520000        5.2442600000
  H        -1.4904010000       -1.1202260000        6.2281240000
  O         8.5919350000       -3.7159020000        1.6401900000
  H         7.9101290000       -3.2215320000        2.1925820000
  H         9.3442030000       -3.2156760000        1.9671490000
  O        15.5434370000       20.6637590000        9.6792870000
  H        15.1983130000       19.6874240000        9.4576450000
  H        15.8805770000       20.6012940000       10.5979360000
  O        18.1911350000       23.3666930000      -15.3794550000
  H        17.7699450000       22.5445580000      -15.6785590000
  H        17.3801920000       23.8990590000      -15.2201290000
  O         8.4781530000        0.2397930000       -9.5879300000
  H         7.8093720000        0.6939410000      -10.1603520000
  H         8.7843450000        1.0318460000       -9.0058760000
  O        15.5295600000       26.0995920000       -2.4282620000
  H        15.5179260000       -4.9934530000       -2.0624190000
  H        14.9444990000       25.6017040000       -1.8202130000
  O        12.5474180000       20.1182000000       -3.3950910000
  H        12.3671840000       19.7348670000       -2.5020650000
  H        13.5073320000       20.4058000000       -3.2495210000
  O         6.9595890000        1.2236480000        8.4733330000
  H         7.2640790000        0.9943650000        7.5615890000
  H         6.0548570000        1.5861180000        8.3395610000
  O        18.5645180000       -3.3735080000        0.0630460000
  H        17.6574550000       -3.0020280000        0.0110930000
  H        18.8310430000       28.5109750000        1.0046740000
  O         1.2124610000       12.6415380000        3.1986360000
  H         0.8821890000       11.6608940000        3.3112650000
  H         1.5068320000       12.9217070000        4.1097540000
  O         0.8223730000        2.5788230000       -5.0404350000
  H         0.6904750000        3.1200590000       -5.8606930000
  H         0.6719830000        1.6910180000       -5.4547410000
  O        15.3196850000        8.2513010000        4.3605660000
  H        15.7909220000        7.4786210000        4.7536150000
  H        15.2796470000        7.8411030000        3.4283600000
  O        16.3419340000        6.2835480000      -12.1497040000
  H        16.8441980000        6.4989890000      -11.3337180000
  H        15.6400380000        6.9595130000      -12.1703280000
  O         0.9562080000       16.1855350000      -13.1674600000
  H         1.1829510000       16.0448110000      -12.2393480000
  H         0.2739170000       15.4693340000      -13.3077610000
  O        21.8827340000        3.7573090000        0.2518320000
  H        20.9861350000        3.7821610000       -0.0378920000
  H        22.1907270000        2.8989700000       -0.0222430000
  O         5.8677840000       -2.2111860000       -5.9151220000
  H         6.7794550000       -2.1175670000       -5.5644680000
  H         5.9738070000       -2.7400550000       -6.7225250000
  O        15.8793370000        1.4985320000        8.9222450000
  H        15.5106210000        0.7447410000        9.3993780000
  H        16.7670500000        1.1433950000        8.7218650000
  O         5.7619850000       19.1937890000        1.3677350000
  H         5.9132030000       19.8637910000        0.6851110000
  H         4.8441280000       19.3269440000        1.6707970000
  O         5.0228050000       20.5133360000        9.3232020000
  H         5.5967990000       21.2431430000        8.9745300000
  H         5.6425460000       20.0445040000        9.9295790000
  O        14.6234980000       -0.6656200000       -8.5582960000
  H        14.6454580000       -0.7876710000       -9.5151090000
  H        15.2210090000        0.1173060000       -8.4977400000
  O         8.8789510000       27.6721820000       -2.1924790000
  H         8.1576200000       -4.8064320000       -2.5794270000
  H         8.4758480000       -3.6404950000       -1.7043220000
  O         0.6178840000       19.7720450000       -9.6798330000
  H         1.0162360000       19.4077470000      -10.5253620000
  H        -0.2344550000       20.1675420000      -10.0761590000
  O        -2.3046730000       -4.3893780000        3.0703400000
  H        -2.4319140000       -4.6180170000        4.0256040000
  H        -3.0042100000       -4.9479620000        2.7297510000
  O         7.7700120000        6.2917950000      -14.9357720000
  H         8.0876240000        5.5371990000      -14.3794250000
  H         8.0135620000        6.0574250000      -15.8527060000
  O        20.7945650000       -0.3082780000       -3.9466370000
  H        19.8889330000       -0.3302470000       -3.5052180000
  H        21.0276570000       -1.2770760000       -3.9176020000
  O        14.6694290000        4.6849630000       -3.7396320000
  H        14.7643680000        5.3944510000       -3.0490370000
  H        15.4036540000        4.9767320000       -4.3632960000
  O        14.5708680000        3.0311090000       11.4865290000
  H        13.7804650000        2.6256770000       11.1425800000
  H        15.1875510000        2.9053870000       10.7287500000
  O        19.2029380000       -5.4943080000       -1.5677140000
  H        19.1937310000       27.2367190000       -2.1973640000
  H        18.9459740000       -5.0541070000       -0.7029990000
  O         1.6673520000        3.5202790000       -1.4124530000
  H         0.7608780000        3.3589320000       -1.4763610000
  H         1.7880660000        3.9711200000       -0.5867430000
  O        22.4820190000       22.7367320000       -6.4650910000
  H        22.3247570000       22.0329530000       -5.7513620000
  H        21.5250150000       22.8476180000       -6.7193910000
  O        -1.9408280000       -4.8954700000       -2.6639730000
  H        -2.2172600000       -3.9426450000       -2.5585370000
  H        -1.0753550000       -4.7762370000       -2.2647930000
  O         7.2216390000        4.3575990000        2.7160370000
  H         7.1238950000        4.7983320000        1.8258140000
  H         6.3199880000        4.0599110000        2.9090400000
  O        27.5230480000        2.4378900000        2.8951700000
  H        28.1027450000        1.9079610000        3.5262590000
  H        26.8776450000        1.7828130000        2.6698370000
  O        19.5707530000        9.8840050000        3.4767320000
  H        20.1192700000        9.1017430000        3.4137000000
  H        19.7997300000       10.2320430000        4.3479600000
  O        -0.7434660000       12.6555800000       -0.9799130000
  H        -0.6007760000       13.0832640000       -0.1079220000
  H        -0.0682710000       13.1024190000       -1.5769130000
  O         9.3340420000       14.8648100000        3.3056400000
  H         8.6062370000       14.2422300000        3.0967030000
  H         9.7346680000       15.2198150000        2.4966490000
  O         8.3291330000       25.6841490000       -8.7496120000
  H         8.7769540000       26.5708070000       -8.8221220000
  H         8.8737350000       25.2573890000       -8.0211290000
  O        28.2662620000       25.1908510000      -12.9035450000
  H        27.3843990000       25.2457430000      -12.4452640000
  H        -3.2188630000       25.4118860000      -12.0861500000
  O        -3.2783890000       27.7045610000       -7.7539330000
  H        -4.1976580000       27.5406400000       -7.6276480000
  H        -2.8805280000       26.8395790000       -7.6604320000
  O        -2.9766810000       -1.7830960000        2.3763910000
  H        -2.5728160000       -2.6755860000        2.4843870000
  H        -2.8943680000       -1.6708120000        1.4171090000
  O        10.9714070000       -0.4278420000       -3.2978760000
  H        10.7049080000       -0.1264140000       -4.1607810000
  H        11.6450830000       -1.0518340000       -3.5290180000
  O        14.0428730000       22.0433830000      -14.2152390000
  H        14.5429330000       21.2675210000      -14.6136740000
  H        14.3607850000       22.7750430000      -14.8006080000
  O        10.9018020000       10.2185010000        0.4198780000
  H        11.1980560000       10.3410990000       -0.5068790000
  H         9.9740470000       10.4291030000        0.3188460000
  O        -3.2211610000       23.0672650000        8.3766050000
  H        -2.3053780000       23.1799200000        8.0730050000
  H        -3.0352870000       22.3823030000        9.0466420000
  O         4.5523940000       22.5772590000        5.3389780000
  H         4.7981920000       22.4440210000        4.4104290000
  H         4.9197380000       23.4902880000        5.5284980000
  O        21.5208300000       -2.9712380000      -15.7247160000
  H        21.1394330000       -3.8485330000      -15.7191820000
  H        20.6923030000       -2.4923800000      -15.5083640000
  O        -1.4164810000       16.1427820000       -8.7950870000
  H        -1.5883680000       15.7819910000       -7.8562380000
  H        -2.3440140000       15.9586080000       -9.1984330000
  O        22.4759940000        6.5437330000       -8.2198930000
  H        23.0144100000        6.6859790000       -7.3899280000
  H        21.9864980000        5.8073260000       -7.8362870000
  O        14.7594020000        1.9655680000      -11.9408980000
  H        13.9070600000        2.3022580000      -12.3858560000
  H        15.4199600000        2.4759040000      -12.4957020000
  O        21.1081050000       -0.6952940000      -11.1893660000
  H        21.7529890000       -1.3794180000      -11.5847360000
  H        21.1399990000       -1.1048290000      -10.2274830000
  O        11.7859720000        1.7140330000       10.5444150000
  H        11.0644470000        1.9969440000       11.0977210000
  H        11.5898090000        0.7365490000       10.4242610000
  O        18.1187320000       21.0597710000      -10.9291290000
  H        18.4310150000       20.2875610000      -11.4827150000
  H        19.0138260000       21.4737570000      -10.7781110000
  O        12.9246280000       16.9836140000      -13.7810500000
  H        12.0404730000       16.6558210000      -13.9757720000
  H        12.7269120000       17.9417590000      -13.6843510000
  O        11.2079100000        7.8325240000       10.5461990000
  H        10.6017600000        7.4569680000        9.9390290000
  H        11.8136700000        7.0467150000       10.5840460000
  O        26.9350810000       14.2630810000       -0.7108190000
  H        26.3460920000       13.5103960000       -0.8937500000
  H        26.3369330000       15.0022160000       -0.8393140000
  O         5.9064490000       -2.6510700000      -11.2789180000
  H         6.3441780000       -2.2832570000      -12.0429550000
  H         5.7963360000       -3.5219420000      -11.6714370000
  O        -2.6105640000       19.8905620000       -0.4207630000
  H        -2.7468440000       20.0395450000       -1.3382720000
  H        -1.6823910000       19.7750000000       -0.3745500000
  O        10.1591230000        1.9167720000        0.5255400000
  H        10.1836710000        2.4820350000        1.3693950000
  H        10.3694630000        2.6153200000       -0.1152890000
  O         7.7760840000       12.6653740000       -6.7975960000
  H         8.3112980000       12.3876830000       -5.9954450000
  H         7.0030550000       12.9928530000       -6.2660340000
  O        18.4654330000       18.6394180000        6.3960630000
  H        19.0613960000       17.8682540000        6.2023830000
  H        17.5498410000       18.2023930000        6.2130540000
  O         9.8840380000       11.7330670000      -10.1438430000
  H         9.5902100000       12.4212440000       -9.5829490000