#     Step Nr.          Time[fs]        Kin.[a.u.]          Temp[K]            Pot.[a.u.]        Cons Qty[a.u.]        UsedTime[s]
         0            0.000000         3.843405441       300.000000000     -1423.473070388     -1419.629189924         0.000000000
         1            1.000000         3.802048097       296.771820311     -1423.429628331     -1419.626256266        46.938226853
         2            2.000000         3.709922556       289.580889577     -1423.335116329     -1419.623044906        13.008507468
         3            3.000000         3.702221704       288.979793591     -1423.331005692     -1419.625844880        12.347622026
         4            4.000000         3.768024310       294.116067146     -1423.409357515     -1419.637623311        12.344975764
         5            5.000000         3.803237218       296.864638077     -1423.460114697     -1419.652401876        12.382782189
         6            6.000000         3.795171589       296.235069152     -1423.471486726     -1419.671079993        12.761241958
         7            7.000000         3.805704960       297.057259600     -1423.475854386     -1419.664163483        12.358398853
         8            8.000000         3.858873842       301.207397999     -1423.540087428     -1419.674476898        13.042653237
         9            9.000000         3.850610007       300.562358003     -1423.535163829     -1419.677060295        13.015038308
        10           10.000000         3.747975593       292.551148955     -1423.409835373     -1419.653621038        12.353381358
        11           11.000000         3.668274645       286.330029552     -1423.312384134     -1419.635161079        12.340293804
        12           12.000000         3.709924566       289.581046486     -1423.350812906     -1419.631264558        12.354956856
        13           13.000000         3.826535618       298.683212833     -1423.495824599     -1419.658999503        12.321900906
        14           14.000000         3.863611125       301.577170322     -1423.531182159     -1419.656607383        12.369438130
        15           15.000000         3.834229047       299.283729376     -1423.539082800     -1419.693212638        13.018651212
        16           16.000000         3.848407323       300.390425797     -1423.557508516     -1419.696784434        13.055946967
        17           17.000000         3.867547651       301.884438928     -1423.550446144     -1419.669901743        13.042887382
        18           18.000000         3.820852327       298.239599086     -1423.502726230     -1419.668196096        13.046860257
        19           19.000000         3.727948574       290.987924419     -1423.402278477     -1419.659988594        13.009865625
        20           20.000000         3.699743762       288.786375911     -1423.375489721     -1419.660772214        13.037630737
        21           21.000000         3.802952228       296.842393013     -1423.482166296     -1419.663626058        13.016431443
        22           22.000000         3.900987489       304.494611493     -1423.588553805     -1419.671355342        13.039576776
        23           23.000000         3.881088022       302.941343159     -1423.553984086     -1419.656046719        12.365798531
        24           24.000000         3.826746338       298.699660718     -1423.498866220     -1419.654631100        12.362865377
        25           25.000000         3.824343469       298.512102951     -1423.475808523     -1419.633343074        12.356970578
        26           26.000000         3.879692167       302.832388543     -1423.531365749     -1419.632915873        12.381579390
        27           27.000000         3.878624668       302.749064082     -1423.531773138     -1419.633744101        12.342274187
        28           28.000000         3.806847174       297.146416036     -1423.420644888     -1419.593746897        12.363890855
        29           29.000000         3.813191884       297.641657261     -1423.436685349     -1419.602806407        12.381991480
        30           30.000000         3.888642851       303.531041169     -1423.516684994     -1419.606715690        12.367857087
        31           31.000000         3.917977493       305.820779495     -1423.520952135     -1419.580991386        12.379150236
        32           32.000000         3.845205217       300.140482872     -1423.411247895     -1419.543393100        12.364123328
        33           33.000000         3.741508674       292.046368566     -1423.311492136     -1419.546682325        12.329410862
        34           34.000000         3.778419554       294.927476062     -1423.403810122     -1419.601459399        12.342583705
        35           35.000000         3.870344569       302.102754514     -1423.509447352     -1419.614541563        12.357213378
        36           36.000000         3.869701750       302.052578830     -1423.477809916     -1419.582905454        12.352274699
        37           37.000000         3.835002201       299.344078509     -1423.447594529     -1419.586745787        12.354357533
        38           38.000000         3.812284445       297.570826451     -1423.418663122     -1419.579893594        12.427017171
        39           39.000000         3.842286448       299.912656092     -1423.440625825     -1419.571219126        12.339448543
        40           40.000000         3.847229978       300.298527207     -1423.435031631     -1419.560043242        12.365408221
        41           41.000000         3.730614205       291.195992318     -1423.313753654     -1419.554753392        12.365284134
        42           42.000000         3.685904701       287.706157235     -1423.265810068     -1419.550924101        12.369334839
        43           43.000000         3.776113523       294.747477028     -1423.359179930     -1419.553512731        12.369333612
        44           44.000000         3.872390318       302.262437097     -1423.456799041     -1419.554280538        12.349913636
        45           45.000000         3.903169920       304.664962812     -1423.503853669     -1419.569966259        12.351524677
        46           46.000000         3.840305831       299.758057519     -1423.428584994     -1419.556964067        12.344732743
        47           47.000000         3.827478462       298.756807230     -1423.403583027     -1419.544195949        12.350822357
        48           48.000000         3.875408584       302.498030155     -1423.438653645     -1419.530740723        12.351190126
        49           49.000000         3.827831503       298.784364146     -1423.382501305     -1419.521564509        12.344381386
        50           50.000000         3.760664545       293.541594985     -1423.325832869     -1419.531473347        12.362758467
        51           51.000000         3.751187562       292.801861749     -1423.324097485     -1419.538644771        12.397753540
        52           52.000000         3.814590090       297.750795310     -1423.394675386     -1419.545261029        12.401530227
        53           53.000000         3.898774322       304.321861006     -1423.481601640     -1419.547436983        12.368235204
        54           54.000000         3.835396581       299.374862159     -1423.368823725     -1419.497460483        12.361747738
        55           55.000000         3.747447548       292.509932054     -1423.269679202     -1419.485700744        12.360379342
        56           56.000000         3.775303999       294.684288927     -1423.337575152     -1419.525195098        12.356006900
        57           57.000000         3.809778674       297.375236543     -1423.369106043     -1419.521713554        12.348668657
        58           58.000000         3.812508153       297.588288157     -1423.391630495     -1419.540974183        12.398488212
        59           59.000000         3.751844714       292.853156271     -1423.334240770     -1419.543723823        12.375034127
        60           60.000000         3.728637045       291.041663564     -1423.302255350     -1419.534443321        12.339046827
        61           61.000000         3.817152785       297.950828529     -1423.421879292     -1419.565062817        12.379228529
        62           62.000000         3.805080910       297.008548936     -1423.402380737     -1419.557148716        12.380176947
        63           63.000000         3.723897776       290.671736235     -1423.310295436     -1419.545772825        12.358253147
        64           64.000000         3.711854588       289.731695853     -1423.293157711     -1419.540230491        12.374102201
        65           65.000000         3.757179912       293.269599269     -1423.344077230     -1419.545397706        12.352768453
        66           66.000000         3.866608361       301.811121923     -1423.463516213     -1419.554986518        12.369855069
        67           67.000000         3.866482740       301.801316473     -1423.471504325     -1419.562669111        12.374974091
        68           68.000000         3.784004510       295.363414149     -1423.368088222     -1419.541300669        12.361139096
        69           69.000000         3.818935426       298.089973886     -1423.424359480     -1419.562220469        12.374335701
        70           70.000000         3.850777027       300.575394880     -1423.459135082     -1419.564733643        12.343246585
        71           71.000000         3.826817943       298.705249922     -1423.440466584     -1419.569601305        12.407008067
        72           72.000000         3.758074509       293.339427759     -1423.370362088     -1419.567825175        12.374956165
        73           73.000000         3.712831479       289.807947871     -1423.296607140     -1419.538918839        12.387975618
        74           74.000000         3.830349006       298.980869779     -1423.438764689     -1419.563180764        12.349904817
        75           75.000000         3.897019561       304.184891755     -1423.516213263     -1419.573573687        12.373703336
        76           76.000000         3.825657810       298.614694857     -1423.421729552     -1419.550057914        12.351161925
        77           77.000000         3.784182925       295.377340471     -1423.391482724     -1419.560898959        12.421545316
        78           78.000000         3.770945463       294.344080069     -1423.371449474     -1419.553728180        12.345872575
        79           79.000000         3.826260506       298.661738743     -1423.418188034     -1419.544785549        12.357617771
        80           80.000000         3.816817620       297.924666952     -1423.427887293     -1419.563562604        12.378504096
        81           81.000000         3.686951528       287.787868169     -1423.262723702     -1419.527913001        12.393732732
        82           82.000000         3.704440328       289.152970057     -1423.290262368     -1419.537640998        12.360943232
        83           83.000000         3.791068250       295.914779843     -1423.395787418     -1419.556235575        12.385902572
        84           84.000000         3.804721768       296.980515824     -1423.414660177     -1419.561158746        12.390337003
        85           85.000000         3.770089092       294.277235327     -1423.387240170     -1419.568083399        12.353598706
        86           86.000000         3.685566927       287.679792004     -1423.284806969     -1419.549902740        12.353119269
        87           87.000000         3.743012605       292.163759086     -1423.350965749     -1419.558372941        12.367469845
        88           88.000000         3.839222419       299.673490957     -1423.467963757     -1419.578930671        12.386500837
        89           89.000000         3.766196096       293.973364482     -1423.380062801     -1419.563828489        12.359641105
        90           90.000000         3.704986559       289.195606551     -1423.306857281     -1419.551622352        12.390299812
        91           91.000000         3.702884471       289.031526438     -1423.299430534     -1419.546113399        12.361808727
        92           92.000000         3.755295291       293.122493685     -1423.362760672     -1419.556872064        12.369440665
        93           93.000000         3.791418524       295.942120773     -1423.423340538     -1419.581182819        12.349425653
        94           94.000000         3.671206241       286.558857495     -1423.313772573     -1419.591695758        12.352806816
        95           95.000000         3.646136328       284.602005998     -1423.308688075     -1419.611582142        13.027297545
        96           96.000000         3.759011108       293.412534688     -1423.426750763     -1419.616704079        12.334280372
        97           97.000000         3.806893750       297.150051579     -1423.461856435     -1419.603877425        12.383955017
        98           98.000000         3.802781342       296.829054327     -1423.452167937     -1419.598259531        12.370692050
        99           99.000000         3.716698750       290.109810722     -1423.328727600     -1419.560870107        12.379735665
       100          100.000000         3.716407375       290.087067182     -1423.328183731     -1419.560608618        12.340612784
       101          101.000000         3.828919663       298.869301318     -1423.458890514     -1419.578816221        12.368522299
       102          102.000000         3.785921842       295.513072985     -1423.413552334     -1419.576495885        12.353293378
       103          103.000000         3.734691640       291.514259672     -1423.382775265     -1419.596980429        12.333507117
       104          104.000000         3.764598992       293.848701288     -1423.420090296     -1419.604439047        12.335084364
       105          105.000000         3.822658035       298.380545053     -1423.469588777     -1419.595945393        12.377801653
       106          106.000000         3.928323773       306.628366435     -1423.577493541     -1419.598256332        12.355459040
       107          107.000000         3.869824690       302.062175031     -1423.505870036     -1419.585191819        12.337662898
       108          108.000000         3.777206871       294.832819108     -1423.393496796     -1419.565491204        12.357428120
       109          109.000000         3.837357392       299.527914836     -1423.477074446     -1419.588982811        12.332914185
       110          110.000000         3.847179507       300.294587607     -1423.479155500     -1419.581309901        12.341737647
       111          111.000000         3.833437901       299.221975896     -1423.466355505     -1419.582320112        12.351976136
       112          112.000000         3.795889683       296.291120560     -1423.417059363     -1419.570643566        12.380678480
       113          113.000000         3.772364170       294.454818289     -1423.373159985     -1419.550350263        12.333742494
       114          114.000000         3.895753494       304.086067926     -1423.521295134     -1419.575189135        12.351109060
       115          115.000000         3.907933052       305.036752844     -1423.527809760     -1419.569612022        12.361974573
       116          116.000000         3.835533619       299.385558771     -1423.424447991     -1419.538726830        12.364073103
       117          117.000000         3.853407270       300.780700517     -1423.480851456     -1419.577333363        13.005823363
       118          118.000000         3.869276609       302.019394068     -1423.469295674     -1419.549984173        13.049001526
       119          119.000000         3.944918146       307.923653074     -1423.559795234     -1419.564913045        13.027305638
       120          120.000000         3.933358815       307.021380508     -1423.589052413     -1419.605783158        12.316182891
       121          121.000000         3.837395398       299.530881378     -1423.452247603     -1419.564979108        12.350398986
       122          122.000000         3.904044200       304.733205441     -1423.541715651     -1419.587833053        12.335205741
       123          123.000000         3.937888136       307.374920188     -1423.563165788     -1419.575463223        12.320650972
       124          124.000000         3.904050720       304.733714411     -1423.521110083     -1419.567251569        12.340645460
       125          125.000000         3.871018156       302.155331914     -1423.498573678     -1419.577742009        13.000105558
       126          126.000000         3.813884992       297.695758389     -1423.422616441     -1419.558907243        13.020546023
       127          127.000000         3.910955259       305.272653536     -1423.540751676     -1419.579963389        13.023634816
       128          128.000000         3.952052635       308.480541161     -1423.583390245     -1419.581483021        12.997797292
       129          129.000000         3.835910983       299.415014225     -1423.459013864     -1419.573208558        13.018584684
       130          130.000000         3.807357862       297.186278192     -1423.411315260     -1419.554022802        12.981941352
       131          131.000000         3.794274287       296.165029568     -1423.403077572     -1419.558834879        13.043386621
       132          132.000000         3.825990403       298.640655609     -1423.437795540     -1419.561811071        12.995943433
       133          133.000000         3.840146632       299.745631079     -1423.459193134     -1419.569030196        12.982306251
       134          134.000000         3.719464073       290.325660161     -1423.306744476     -1419.537245774        12.990757931
       135          135.000000         3.757750365       293.314126438     -1423.369885277     -1419.562102357        13.046370206
       136          136.000000         3.835691478       299.397880566     -1423.463797942     -1419.578092120        12.341674147
       137          137.000000         3.798860918       296.523042561     -1423.384224098     -1419.535371807        12.362315200
       138          138.000000         3.781515890       295.169162933     -1423.372043704     -1419.540567958        12.304019861
       139          139.000000         3.706680384       289.327819341     -1423.244226241     -1419.487631120        12.342208087
       140          140.000000         3.736907321       291.687206378     -1423.304827855     -1419.518075543        13.005292207
       141          141.000000         3.822919384       298.400944891     -1423.419275510     -1419.546602851        12.339720583
       142          142.000000         3.725366776       290.786400162     -1423.262562235     -1419.487543739        12.331383055
       143          143.000000         3.695820241       288.480122436     -1423.239788559     -1419.494439395        12.317014024
       144          144.000000         3.726702863       290.890689524     -1423.278544232     -1419.502464612        12.354540166
       145          145.000000         3.751901325       292.857575029     -1423.292144297     -1419.491045126        12.334774010
       146          146.000000         3.823465698       298.443587865     -1423.387701559     -1419.515239365        12.356879272
       147          147.000000         3.763132047       293.734197782     -1423.302481673     -1419.490565420        12.334616590
       148          148.000000         3.762061201       293.650612044     -1423.297248675     -1419.486631892        12.328089861
       149          149.000000         3.863857778       301.596423047     -1423.436734864     -1419.524571000        12.389223479
       150          150.000000         3.850486770       300.552738582     -1423.415591241     -1419.517053992        12.334756443
       151          151.000000         3.854645916       300.877383996     -1423.430676089     -1419.528237686        12.360999303
       152          152.000000         3.828511611       298.837450472     -1423.395325409     -1419.519281707        12.310840204
       153          153.000000         3.824924101       298.557424608     -1423.374503844     -1419.502314205        12.351541447
       154          154.000000         3.923147181       306.224303509     -1423.508051525     -1419.537914814        12.331097718
       155          155.000000         3.866683699       301.817002497     -1423.431327849     -1419.517924948        12.337180246
       156          156.000000         3.835623259       299.392555717     -1423.395001779     -1419.512926255        12.339031411
       157          157.000000         3.898713825       304.317138887     -1423.480262377     -1419.535368619        12.328896025
       158          158.000000         3.878825047       302.764704833     -1423.440157053     -1419.515421997        12.395704132
       159          159.000000         3.898628823       304.310503982     -1423.475497329     -1419.531225371        12.318673911
       160          160.000000         3.841568865       299.856644590     -1423.416098179     -1419.529147666        12.301764803
       161          161.000000         3.781421416       295.161788734     -1423.333993595     -1419.507453510        12.343730241
       162          162.000000         3.885548267       303.289491008     -1423.469183535     -1419.538794731        12.300915811
       163          163.000000         3.860153184       301.307258052     -1423.440089888     -1419.535377451        12.341579124
       164          164.000000         3.792609901       296.035114635     -1423.354869314     -1419.517981295        12.307571443
       165          165.000000         3.786255514       295.539117977     -1423.362146293     -1419.531905296        12.314691056
       166          166.000000         3.755538199       293.141454067     -1423.309655354     -1419.510440693        12.333108969
       167          167.000000         3.833865887       299.255382649     -1423.411937523     -1419.534727374        12.306759609
       168          168.000000         3.809320932       297.339507114     -1423.394663034     -1419.542343716        12.322839294
       169          169.000000         3.725571084       290.802347649     -1423.291192859     -1419.522979543        12.328092931
       170          170.000000         3.802838224       296.833494271     -1423.385818809     -1419.540721029        12.343405869
       171          171.000000         3.824104321       298.493436037     -1423.419386281     -1419.553427652        12.319127327
       172          172.000000         3.827380346       298.749148682     -1423.405832547     -1419.537017261        12.347266635
       173          173.000000         3.789597957       295.800014936     -1423.372666659     -1419.542064189        12.315532049
       174          174.000000         3.700212993       288.823002128     -1423.247978758     -1419.507205157        12.310181377
       175          175.000000         3.795850625       296.288071796     -1423.376168010     -1419.540234243        12.291820914
       176          176.000000         3.838984803       299.654943621     -1423.457805900     -1419.579245323        13.014138514
       177          177.000000         3.789479918       295.790801344     -1423.387378500     -1419.558843611        12.993692387
       178          178.000000         3.813448814       297.661712139     -1423.429332544     -1419.577367762        12.339087926
       179          179.000000         3.792612115       296.035287400     -1423.399682547     -1419.569112163        13.000177924
       180          180.000000         3.862573321       301.496163778     -1423.511325952     -1419.611375514        12.969295077
       181          181.000000         3.888347744       303.508006335     -1423.527059867     -1419.601933053        12.985390637
       182          182.000000         3.751588816       292.833181950     -1423.314656700     -1419.526885679        12.328259343
       183          183.000000         3.775946020       294.734402382     -1423.296144379     -1419.484630884        12.331786957
       184          184.000000         3.829396644       298.906532423     -1423.355480440     -1419.491163244        12.307285951
       185          185.000000         3.843945717       300.042171659     -1423.357359056     -1419.479162959        12.379823143
       186          186.000000         3.877171145       302.635608229     -1423.410794539     -1419.500060876        12.313269163
       187          187.000000         3.789290434       295.776011059     -1423.329430962     -1419.507271401        12.341778299
       188          188.000000         3.822567333       298.373465252     -1423.321500686     -1419.466774814        13.010038482
       189          189.000000         3.897177780       304.197241725     -1423.419616675     -1419.491019095        13.007504160
       190          190.000000         3.818757425       298.076079906     -1423.308147697     -1419.458716928        12.306281418
       191          191.000000         3.818878069       298.085496901     -1423.321905063     -1419.473110624        12.311071038
       192          192.000000         3.809441207       297.348895268     -1423.328556125     -1419.489975106        12.327942880
       193          193.000000         3.840346094       299.761200255     -1423.322463629     -1419.453778029        12.308126217
       194          194.000000         3.924627324       306.339837207     -1423.445631341     -1419.493492438        12.340158883
       195          195.000000         3.819940407       298.168418461     -1423.299360419     -1419.452738833        12.332944464
       196          196.000000         3.790943759       295.905062618     -1423.293673755     -1419.476883787        12.322555067
       197          197.000000         3.849920134       300.508509414     -1423.368482978     -1419.493579705        12.302426195
       198          198.000000         3.836454599       299.457446630     -1423.323200952     -1419.462648750        12.302217221
       199          199.000000         3.867486183       301.879641017     -1423.402175571     -1419.511496724        12.350334408
       200          200.000000         3.807920560       297.230200002     -1423.320838045     -1419.490640952        12.325834345
       201          201.000000         3.805477440       297.039500344     -1423.306121952     -1419.479299534        12.348774167
       202          202.000000         3.910846065       305.264130337     -1423.438813061     -1419.507588795        12.337911025
       203          203.000000         3.837595474       299.546498446     -1423.342863443     -1419.485869221        12.297172809
       204          204.000000         3.790997700       295.909273006     -1423.299689885     -1419.490275779        12.290570294
       205          205.000000         3.788420868       295.708136335     -1423.304707319     -1419.498872983        12.308964491
       206          206.000000         3.772930496       294.499023375     -1423.266956555     -1419.477642132        12.308823431
       207          207.000000         3.870502265       302.115063627     -1423.398233408     -1419.512417576        12.286445104
       208          208.000000         3.821818771       298.315035675     -1423.319662437     -1419.483624040        12.312681437
       209          209.000000         3.754931227       293.094076438     -1423.235922452     -1419.467872133        12.283573383
       210          210.000000         3.830858649       299.020650369     -1423.341101444     -1419.498258203        12.312421529
       211          211.000000         3.808234174       297.254679370     -1423.281864772     -1419.462812205        12.347238578
       212          212.000000         3.801667315       296.742098085     -1423.261981053     -1419.450682532        12.299195224
       213          213.000000         3.759871918       293.479725866     -1423.219200158     -1419.450904549        12.327740286
       214          214.000000         3.698766762       288.710115393     -1423.131150601     -1419.425186579        12.318658443
       215          215.000000         3.823399187       298.438396269     -1423.291495721     -1419.462179258        12.297629558
       216          216.000000         3.835437725       299.378073692     -1423.286307304     -1419.446281784        12.289520470
       217          217.000000         3.767141425       294.047152907     -1423.214894367     -1419.444507706        12.336371195
       218          218.000000         3.780859866       295.117956494     -1423.249274053     -1419.466534077        12.316305600
       219          219.000000         3.751162468       292.799902990     -1423.198323953     -1419.446676001        12.291743174
       220          220.000000         3.821979191       298.327557394     -1423.310588318     -1419.489560882        12.323069686
       221          221.000000         3.830020923       298.955261045     -1423.315176462     -1419.487584546        12.304930856
       222          222.000000         3.751504064       292.826566503     -1423.207212559     -1419.459624711        12.303462446
       223          223.000000         3.848266019       300.379396158     -1423.344597216     -1419.501770913        12.340958817
       224          224.000000         3.886838093       303.390169409     -1423.376463482     -1419.496634943        12.311007164
       225          225.000000         3.879537340       302.820303414     -1423.362128699     -1419.491187891        12.314965593
       226          226.000000         3.874895482       302.457979619     -1423.372990680     -1419.508286813        12.350158794
       227          227.000000         3.785669585       295.493382860     -1423.251732888     -1419.477843670        12.321027353