#     Step Nr.          Time[fs]        Kin.[a.u.]          Temp[K]            Pot.[a.u.]        Cons Qty[a.u.]        UsedTime[s]
         0            0.000000         3.843405441       300.000000000     -1268.613009267     -1264.769128803         0.000000000
         1            1.000000         3.737742809       291.752421114     -1268.502602018     -1264.763543937        58.075751144
         2            2.000000         3.710309433       289.611087588     -1268.476913887     -1264.764482226        14.595687095
         3            3.000000         3.729480235       291.107479417     -1268.494526115     -1264.762142209        14.576788779
         4            4.000000         3.745744542       292.377002588     -1268.479882274     -1264.730471054        13.979171656
         5            5.000000         3.814890789       297.774266624     -1268.631680460     -1264.812369124        14.613121815
         6            6.000000         3.715470795       290.013961718     -1268.501191241     -1264.780558598        14.668241840
         7            7.000000         3.728178274       291.005853847     -1268.528423762     -1264.794372899        13.950414434
         8            8.000000         3.873402572       302.341449386     -1268.709508899     -1264.829527341        14.592609622
         9            9.000000         3.848358714       300.386631537     -1268.665450042     -1264.809792849        13.963265732
        10           10.000000         3.821550812       298.294119907     -1268.650550694     -1264.820985633        14.014169779
        11           11.000000         3.744141888       292.251906143     -1268.568656457     -1264.815799615        13.983078104
        12           12.000000         3.738895473       291.842393196     -1268.591305471     -1264.843019394        14.667478722
        13           13.000000         3.899637329       304.389223742     -1268.793730419     -1264.884029253        14.647197045
        14           14.000000         3.859928349       301.289708431     -1268.715294910     -1264.844612271        14.629475821
        15           15.000000         3.817654077       297.989957226     -1268.663367033     -1264.834271991        13.944904253
        16           16.000000         3.881836792       302.999788985     -1268.736401243     -1264.842437045        13.991931424
        17           17.000000         3.878865144       302.767834632     -1268.641981994     -1264.750291162        14.059401631
        18           18.000000         3.931390833       306.867768171     -1268.718945746     -1264.774017491        14.583837487
        19           19.000000         3.851188512       300.607513621     -1268.631692069     -1264.766242130        14.701677661
        20           20.000000         3.781238417       295.147504586     -1268.535856811     -1264.739644692        14.631509833
        21           21.000000         3.944088278       307.858877074     -1268.732688975     -1264.772912256        13.960065324
        22           22.000000         3.980367428       310.690674349     -1268.758917164     -1264.762110165        14.684660938
        23           23.000000         3.960172201       309.114320171     -1268.744801716     -1264.767409993        14.667009246
        24           24.000000         3.943491993       307.812333571     -1268.737018594     -1264.775506106        14.665513769
        25           25.000000         3.897324120       304.208664364     -1268.654344723     -1264.738185286        14.051605858
        26           26.000000         3.999361971       312.173308173     -1268.806936685     -1264.787903198        14.653296899
        27           27.000000         3.965062455       309.496032751     -1268.781008584     -1264.795401937        15.223141599
        28           28.000000         3.842948287       299.964316460     -1268.629936166     -1264.765565052        15.906893149
        29           29.000000         3.903432702       304.685474494     -1268.744066391     -1264.818333951        15.914415501
        30           30.000000         3.944413093       307.884230808     -1268.770812062     -1264.803198416        15.217232108
        31           31.000000         4.009527056       312.966751755     -1268.884516465     -1264.850853631        15.291250490
        32           32.000000         3.979771231       310.644137740     -1268.899603036     -1264.894723985        15.849077966
        33           33.000000         3.829142622       298.886704514     -1268.699692939     -1264.844467132        15.289009444
        34           34.000000         3.917300927       305.767969596     -1268.802530832     -1264.858175279        14.634923071
        35           35.000000         3.993104031       311.684839803     -1268.883759648     -1264.862593415        15.331988841
        36           36.000000         3.946668707       308.060294477     -1268.828074032     -1264.852303503        15.291310802
        37           37.000000         3.944006309       307.852478927     -1268.844720050     -1264.870555759        15.254450813
        38           38.000000         3.901052637       304.499696643     -1268.810358670     -1264.878077941        15.309551671
        39           39.000000         3.982468337       310.854662410     -1268.911824865     -1264.897037458        15.328094527
        40           40.000000         4.015636514       313.443630306     -1268.937785068     -1264.888694498        14.604375567
        41           41.000000         3.861832907       301.438370140     -1268.730602205     -1264.834166573        15.315279160
        42           42.000000         3.855410583       300.937070632     -1268.636283423     -1264.745136972        14.635232270
        43           43.000000         3.888321095       303.505926239     -1268.682022487     -1264.756824810        15.325711451
        44           44.000000         3.922737497       306.192325315     -1268.697713642     -1264.736939576        15.268104881
        45           45.000000         3.968620152       309.773731601     -1268.759580755     -1264.751735431        15.332259867
        46           46.000000         3.869274569       302.019234840     -1268.662127456     -1264.752425420        15.261260360
        47           47.000000         3.909450080       305.155165635     -1268.728644372     -1264.777564892        15.338254977
        48           48.000000         3.987104533       311.216544338     -1268.830539747     -1264.800571336        15.306576982
        49           49.000000         3.922320263       306.159757790     -1268.726275220     -1264.759829141        15.319226634
        50           50.000000         3.906825474       304.950299934     -1268.678994448     -1264.726777158        14.066454925
        51           51.000000         3.875194672       302.481333089     -1268.602185891     -1264.680329239        14.678002466
        52           52.000000         3.940074226       307.545557178     -1268.599304741     -1264.611284794        13.361475252
        53           53.000000         4.072744526       317.901240538     -1268.765106758     -1264.643079283        14.009994261
        54           54.000000         3.975603038       310.318786194     -1268.629083212     -1264.602813508        14.095170390
        55           55.000000         3.940053755       307.543959297     -1268.560272866     -1264.568164056        13.336118199
        56           56.000000         4.001857729       312.368116484     -1268.626461645     -1264.571134963        13.387469016
        57           57.000000         3.990220552       311.459767570     -1268.625935808     -1264.580794422        13.388649564
        58           58.000000         4.034919341       314.948766333     -1268.692478933     -1264.601150924        14.030750208
        59           59.000000         3.944356256       307.879794355     -1268.567022381     -1264.564744557        14.031237841
        60           60.000000         3.908530665       305.083399991     -1268.517782841     -1264.549822446        13.401082236
        61           61.000000         4.044201009       315.673254158     -1268.652168959     -1264.546996095        12.737518188
        62           62.000000         4.018097097       313.635692967     -1268.604505609     -1264.523839233        13.318407807
        63           63.000000         3.977401700       310.459182133     -1268.557517361     -1264.515930348        12.788816139
        64           64.000000         3.962716935       309.312951390     -1268.549134587     -1264.520603675        12.748143986
        65           65.000000         3.960140475       309.111843803     -1268.481478657     -1264.453879191        12.750179287
        66           66.000000         4.072009392       317.843859078     -1268.628597555     -1264.487439582        12.734151296
        67           67.000000         4.014362493       313.344185617     -1268.568856718     -1264.483607411        12.743832830
        68           68.000000         3.949092997       308.249524345     -1268.547144548     -1264.525424463        13.407877393
        69           69.000000         4.030720840       314.621049090     -1268.668285401     -1264.563175189        13.406286117
        70           70.000000         4.034986852       314.954035970     -1268.684063450     -1264.572876937        13.324496329
        71           71.000000         4.046184546       315.828080710     -1268.690439532     -1264.566210059        13.345430411
        72           72.000000         3.992603002       311.645731563     -1268.639839408     -1264.567324968        13.389553446
        73           73.000000         3.919895949       305.970526022     -1268.544609139     -1264.542944736        12.714659587
        74           74.000000         4.033228249       314.816766831     -1268.695854171     -1264.578981445        12.768231519
        75           75.000000         4.031664819       314.694732094     -1268.621158607     -1264.503922439        12.697984304
        76           76.000000         3.947645413       308.136532016     -1268.491432949     -1264.456285959        12.799638752
        77           77.000000         3.944854666       307.918698109     -1268.491670459     -1264.457395328        12.709771536
        78           78.000000         3.927035132       306.527780528     -1268.457191282     -1264.438816134        12.710636031
        79           79.000000         4.017187679       313.564707636     -1268.558169439     -1264.447700182        12.706438124
        80           80.000000         4.010865733       313.071243261     -1268.469509766     -1264.363383525        12.736127306
        81           81.000000         3.892895497       303.862984753     -1268.321004000     -1264.330885798        12.772572450
        82           82.000000         3.959329779       309.048564344     -1268.408377303     -1264.349879054        12.741794411
        83           83.000000         3.997644489       312.039248817     -1268.440857208     -1264.342068878        12.163221996
        84           84.000000         3.978580785       310.551216541     -1268.470797564     -1264.389082984        12.734755434
        85           85.000000         3.946756259       308.067128461     -1268.402229578     -1264.350356327        12.766220164
        86           86.000000         3.856196422       300.998409915     -1268.261800254     -1264.298537000        12.746974338
        87           87.000000         3.939244870       307.480821138     -1268.380102559     -1264.331859018        12.740122564
        88           88.000000         3.998366886       312.095636076     -1268.466037699     -1264.356710156        12.855977982
        89           89.000000         3.914599328       305.557094144     -1268.392111419     -1264.364592491        12.719001133
        90           90.000000         3.923934985       306.285796171     -1268.369320369     -1264.330534235        12.123720903
        91           91.000000         3.924563365       306.334844802     -1268.394773520     -1264.353435466        12.749324597
        92           92.000000         3.975039967       310.274835254     -1268.489780498     -1264.396039476        12.740026157
        93           93.000000         4.001062539       312.306047360     -1268.540721014     -1264.419014476        12.795863453
        94           94.000000         3.876965174       302.619531039     -1268.466803451     -1264.467276066        12.729758754
        95           95.000000         3.899614108       304.387411207     -1268.491699850     -1264.467649288        12.787283152
        96           96.000000         3.967407296       309.679061155     -1268.582972236     -1264.489250433        12.756253377
        97           97.000000         3.946341740       308.034772820     -1268.506771108     -1264.432233869        12.710583378
        98           98.000000         3.942453744       307.731292276     -1268.522768067     -1264.450254307        12.763942964
        99           99.000000         3.867671049       301.894070885     -1268.432704490     -1264.433141553        12.748339802
       100          100.000000         3.905921131       304.879710723     -1268.493912833     -1264.454301553        12.746898569
       101          101.000000         4.025312564       314.198901875     -1268.645269149     -1264.484450469        12.727681529
       102          102.000000         3.956000622       308.788704330     -1268.557416096     -1264.464083583        12.755303293
       103          103.000000         3.919049190       305.904431604     -1268.549727939     -1264.491556254        12.749698766
       104          104.000000         3.911580067       305.321423425     -1268.531868592     -1264.479404384        12.712046854
       105          105.000000         3.908054726       305.046250176     -1268.507626700     -1264.456949942        12.749858454
       106          106.000000         3.955117135       308.719743129     -1268.664018156     -1264.564552605        12.766891785
       107          107.000000         3.855628429       300.954074808     -1268.557520939     -1264.555845845        12.859205727
       108          108.000000         3.828904965       298.868154044     -1268.603519718     -1264.626928285        13.404096384
       109          109.000000         3.951068281       308.403706690     -1268.729233555     -1264.628853407        13.327496901
       110          110.000000         3.991230940       311.538634249     -1268.760206614     -1264.618020441        13.383648455
       111          111.000000         3.998348249       312.094181324     -1268.774126053     -1264.623176187        13.418953594
       112          112.000000         3.920165567       305.991571257     -1268.684902250     -1264.610510232        13.410626594
       113          113.000000         3.885701153       303.301424620     -1268.534859354     -1264.493349626        12.851332709
       114          114.000000         4.003837661       312.522661623     -1268.687728605     -1264.526507322        12.736520622
       115          115.000000         3.979378375       310.613473073     -1268.656203326     -1264.517854900        12.760767620
       116          116.000000         3.904362794       304.758073532     -1268.553259716     -1264.488370316        12.741819527
       117          117.000000         3.913750064       305.490804224     -1268.584268649     -1264.508470247        12.792472590
       118          118.000000         3.938111701       307.392370742     -1268.591380657     -1264.489713853        12.769141454
       119          119.000000         4.003091571       312.464424993     -1268.705542154     -1264.537387451        12.787375610
       120          120.000000         3.934975337       307.147559375     -1268.676329498     -1264.574790467        12.736735426
       121          121.000000         3.825733796       298.620625999     -1268.519404676     -1264.525658202        12.811795190
       122          122.000000         3.900694481       304.471740499     -1268.612392268     -1264.542276546        13.402818743
       123          123.000000         3.941671803       307.670257228     -1268.723329423     -1264.610830647        13.418818880
       124          124.000000         3.938160132       307.396151069     -1268.750642127     -1264.640258178        13.435375661
       125          125.000000         3.914163880       305.523104977     -1268.712535119     -1264.624770831        14.051339649
       126          126.000000         3.865416148       301.718062822     -1268.644627664     -1264.604267080        14.075049408
       127          127.000000         3.968697408       309.779761900     -1268.754153800     -1264.609183444        13.415282525
       128          128.000000         3.994226207       311.772432104     -1268.808984003     -1264.637143791        14.049276531
       129          129.000000         3.903669520       304.703959529     -1268.696691835     -1264.614083023        14.085076183
       130          130.000000         3.911832193       305.341103332     -1268.792310369     -1264.700244897        14.692833103
       131          131.000000         3.938454738       307.419146736     -1268.723634453     -1264.603664071        14.073848460
       132          132.000000         4.024525764       314.137487599     -1268.815849623     -1264.608518021        14.713741302
       133          133.000000         4.042444580       315.536154739     -1268.843498092     -1264.616936434        14.024901439
       134          134.000000         3.919821942       305.964749351     -1268.694006387     -1264.588767215        14.054222196
       135          135.000000         3.928708484       306.658395345     -1268.761069441     -1264.645674204        14.038901743
       136          136.000000         3.957712019       308.922288768     -1268.808645201     -1264.662983431        14.076433197
       137          137.000000         3.928242409       306.622015439     -1268.752534281     -1264.635087476        13.420097046
       138          138.000000         3.929331829       306.707050963     -1268.743171472     -1264.623396724        14.131887119
       139          139.000000         3.897352997       304.210918416     -1268.701840946     -1264.612823824        14.067976370
       140          140.000000         3.962404851       309.288591409     -1268.776122045     -1264.620841915        14.006761711
       141          141.000000         4.022930485       314.012966898     -1268.891874160     -1264.674841923        13.469136864
       142          142.000000         3.934413872       307.103733846     -1268.773332206     -1264.643589470        14.007662177
       143          143.000000         3.903636736       304.701400505     -1268.772329649     -1264.672162971        14.069009099
       144          144.000000         3.911070972       305.281685638     -1268.769553914     -1264.660769373        14.723988410
       145          145.000000         3.942363358       307.724237147     -1268.695382450     -1264.554128238        13.415292639
       146          146.000000         3.988884881       311.355510759     -1268.754838169     -1264.565879077        14.026294351
       147          147.000000         3.929897411       306.751197925     -1268.711015413     -1264.579861090        13.400044579
       148          148.000000         3.955616886       308.758751534     -1268.703265458     -1264.545219628        13.368640501
       149          149.000000         4.025045682       314.178070203     -1268.787526171     -1264.558866444        13.378217675
       150          150.000000         3.972176264       310.051306705     -1268.732067714     -1264.555080629        12.770274110
       151          151.000000         3.929468231       306.717697986     -1268.695482938     -1264.560019566        13.398896065
       152          152.000000         3.888720272       303.537084302     -1268.651481390     -1264.555600885        12.722768813
       153          153.000000         3.927846407       306.591105192     -1268.633895967     -1264.497737011        12.750790317
       154          154.000000         4.020628878       313.833313170     -1268.888722419     -1264.658613996        14.066669043
       155          155.000000         3.949054241       308.246499192     -1268.838287211     -1264.678574298        14.671985127
       156          156.000000         3.886832083       303.389700273     -1268.775631867     -1264.676982815        15.357743938
       157          157.000000         3.898208042       304.277659602     -1268.829877097     -1264.718712906        14.659233633
       158          158.000000         3.908843474       305.107816501     -1268.834128569     -1264.711197194        14.731449589
       159          159.000000         3.954742113       308.690470429     -1268.911130305     -1264.741167478        14.646489259
       160          160.000000         3.901394964       304.526417311     -1268.865501150     -1264.747754521        14.708099343
       161          161.000000         3.873819447       302.373988846     -1268.831415548     -1264.740133171        14.676588181
       162          162.000000         3.963740030       309.392809841     -1268.947347725     -1264.765035487        14.650371056
       163          163.000000         3.970809199       309.944599328     -1268.947717129     -1264.757209922        14.698761243
       164          164.000000         3.937787891       307.367095507     -1268.919008148     -1264.760394584        14.660345599
       165          165.000000         3.889417823       303.591532209     -1268.857384522     -1264.746025302        14.054202523
       166          166.000000         3.862380449       301.481108990     -1268.818679124     -1264.733261088        14.710284054
       167          167.000000         3.928190587       306.617970480     -1268.904263527     -1264.751945710        14.714732546
       168          168.000000         3.917776188       305.805066439     -1268.885483309     -1264.742485027        14.747433584
       169          169.000000         3.895383687       304.057202409     -1268.841665199     -1264.719971818        14.698220666
       170          170.000000         3.956851996       308.855159008     -1268.916749606     -1264.732499342        14.701120153
       171          171.000000         3.979913179       310.655217618     -1268.917148168     -1264.708731097        15.346276265
       172          172.000000         3.979998575       310.661883235     -1268.894448319     -1264.684826331        14.685807727
       173          173.000000         3.907857539       305.030858579     -1268.752436427     -1264.613836641        14.067132819
       174          174.000000         3.849289415       300.459278148     -1268.689839274     -1264.608710160        14.008682236
       175          175.000000         3.932192373       306.930332962     -1268.809425480     -1264.644303651        14.079394780
       176          176.000000         3.973430982       310.149244698     -1268.842353566     -1264.634884535        14.017255552
       177          177.000000         3.960293568       309.123793616     -1268.823062898     -1264.627608967        14.036305048
       178          178.000000         3.947858253       308.153145444     -1268.828041083     -1264.643895159        14.018605132
       179          179.000000         3.908503836       305.081305844     -1268.761953519     -1264.616036620        14.002303299
       180          180.000000         3.934835368       307.136634041     -1268.800986065     -1264.627614091        14.768671848
       181          181.000000         3.918389341       305.852926612     -1268.784867014     -1264.626813254        14.024998084
       182          182.000000         3.844331985       300.072322070     -1268.666016052     -1264.580905472        14.101650070
       183          183.000000         3.877373706       302.651419302     -1268.649687984     -1264.530438497        12.774062615
       184          184.000000         3.925419419       306.401664777     -1268.724136332     -1264.555738874        13.411179550
       185          185.000000         3.956594317       308.835045672     -1268.776496917     -1264.575808334        13.355608054
       186          186.000000         3.942070535       307.701380570     -1268.770035536     -1264.582743564        13.403738827
       187          187.000000         3.870492944       302.114336063     -1268.727768134     -1264.610933473        14.084218137
       188          188.000000         3.895018163       304.028671129     -1268.802279110     -1264.659810716        14.670119595
       189          189.000000         3.907426467       304.997210893     -1268.818164870     -1264.662176924        14.077770721
       190          190.000000         3.860482584       301.332969640     -1268.763976455     -1264.653827047        14.699859235
       191          191.000000         3.859552982       301.260408825     -1268.716436597     -1264.606125785        13.399442594
       192          192.000000         3.876542584       302.586545409     -1268.729684308     -1264.601298759        13.431421526
       193          193.000000         3.933338344       307.019782638     -1268.817427859     -1264.631154994        13.365038957
       194          194.000000         3.936379912       307.257194626     -1268.871208561     -1264.680788751        14.137921445
       195          195.000000         3.836650971       299.472774571     -1268.705232491     -1264.613444930        13.425046332
       196          196.000000         3.822825807       298.393640626     -1268.700735472     -1264.621702556        13.414787557
       197          197.000000         3.871958603       302.228739211     -1268.659075952     -1264.529848032        12.817930955
       198          198.000000         3.900250938       304.437119467     -1268.631984405     -1264.473396502        12.852420613
       199          199.000000         3.901952452       304.569932453     -1268.704166655     -1264.542804960        13.420106683
       200          200.000000         3.869502338       302.037013534     -1268.653678158     -1264.523697702        13.420179989
       201          201.000000         3.920122460       305.988206519     -1268.665615715     -1264.483946361        12.840037450
       202          202.000000         3.971374548       309.988728098     -1268.758176093     -1264.524166077        12.775687944
       203          203.000000         3.906647764       304.936428646     -1268.618392157     -1264.448008869        12.779066887
       204          204.000000         3.834975126       299.341965170     -1268.555176284     -1264.455381669        13.578331202
       205          205.000000         3.818237276       298.035479257     -1268.532254633     -1264.448135941        12.770196304
       206          206.000000         3.889986867       303.635949377     -1268.629382438     -1264.472456604        12.798519623
       207          207.000000         3.966261614       309.589634081     -1268.727721226     -1264.493442239        12.807589933
       208          208.000000         3.922639772       306.184697247     -1268.678285396     -1264.486532346        12.817241114
       209          209.000000         3.915009622       305.589120013     -1268.664655255     -1264.479435459        12.789183304
       210          210.000000         3.955401561       308.741944159     -1268.656095930     -1264.429375746        12.756124604
       211          211.000000         3.944168410       307.865131833     -1268.620965716     -1264.404353371        12.786136027
       212          212.000000         3.885105624       303.254940190     -1268.621781836     -1264.463106493        12.790199779
       213          213.000000         3.835964652       299.419203416     -1268.553802208     -1264.443157585        13.387690231
       214          214.000000         3.874823286       302.452344303     -1268.610708185     -1264.460103913        12.750416443
       215          215.000000         3.966974862       309.645307179     -1268.705898003     -1264.462023079        12.757375605
       216          216.000000         3.957879897       308.935392609     -1268.677657032     -1264.441731776        12.768120836
       217          217.000000         3.889543035       303.601305740     -1268.599142852     -1264.430406902        12.782471273
       218          218.000000         3.847021475       300.282252291     -1268.571253647     -1264.443906193        12.709447399
       219          219.000000         3.877402311       302.653652061     -1268.625734866     -1264.466880850        13.400041454
       220          220.000000         3.937169729       307.318844392     -1268.705075627     -1264.485315735        13.398831584
       221          221.000000         3.906943111       304.959482228     -1268.656929424     -1264.466244618        13.381592840
       222          222.000000         3.857642952       301.111319979     -1268.632358209     -1264.489829279        12.794310953
       223          223.000000         3.916548549       305.709242141     -1268.688982726     -1264.486404741        13.336002219
       224          224.000000         3.962639883       309.306937030     -1268.712498113     -1264.462663104        13.436986011
       225          225.000000         3.935726138       307.206163721     -1268.664456374     -1264.440351896        12.755985804
       226          226.000000         3.853192019       300.763898907     -1268.574841892     -1264.432095226        12.762113787
       227          227.000000         3.815687450       297.836450613     -1268.545131374     -1264.438735650        12.784517836