#     Step Nr.          Time[fs]        Kin.[a.u.]          Temp[K]            Pot.[a.u.]        Cons Qty[a.u.]        UsedTime[s]
         0            0.000000         3.850530776       300.000000000     -1567.691629489     -1563.840623691         0.000000000
         1            1.000000         3.612139927       281.426650325     -1567.360705467     -1563.747267231        56.980378054
         2            2.000000         3.580695030       278.976736307     -1567.347696492     -1563.764949409        14.546740897
         3            3.000000         3.622537011       282.236701016     -1567.395145607     -1563.769850535        13.823178515
         4            4.000000         3.548915516       276.500751874     -1567.276923395     -1563.724591817        14.513462944
         5            5.000000         3.733334617       290.869090562     -1567.521829566     -1563.784461954        14.569905780
         6            6.000000         3.619129159       281.971190665     -1567.390498763     -1563.766742750        14.559138611
         7            7.000000         3.633906490       283.122512320     -1567.424822287     -1563.785743687        14.524163630
         8            8.000000         3.888884254       302.988170740     -1567.812252778     -1563.917667310        15.893506804
         9            9.000000         3.727289027       290.398070569     -1567.536339839     -1563.802816269        15.269111220
        10           10.000000         3.697739125       288.095798206     -1567.537007837     -1563.832534622        15.248283256
        11           11.000000         3.657778466       284.982409867     -1567.461676468     -1563.796698240        14.571348019
        12           12.000000         3.609945958       281.255715215     -1567.365797330     -1563.748227807        15.210989913
        13           13.000000         3.909759016       304.614551394     -1567.737436553     -1563.819653963        13.862985687
        14           14.000000         3.831753114       298.537007259     -1567.674172701     -1563.833981348        15.910827372
        15           15.000000         3.745900417       291.848108892     -1567.551607713     -1563.796866706        15.961506300
        16           16.000000         3.901023135       303.933927177     -1567.799262860     -1563.889007631        15.927631116
        17           17.000000         3.791206361       295.377955513     -1567.627245413     -1563.826409274        15.216632422
        18           18.000000         3.838601898       299.070605157     -1567.715693522     -1563.867074873        15.279272836
        19           19.000000         3.748120869       292.021107268     -1567.651040327     -1563.892523212        15.209792111
        20           20.000000         3.610983103       281.336520576     -1567.447527040     -1563.825799736        14.534782033
        21           21.000000         3.936458387       306.694735031     -1567.850185793     -1563.902661857        15.239838159
        22           22.000000         3.973096859       309.549287401     -1567.820888504     -1563.836378451        14.559709571
        23           23.000000         3.908289431       304.500053995     -1567.739279483     -1563.819207519        15.183733238
        24           24.000000         3.932013509       306.348428657     -1567.806063264     -1563.861885181        14.536340537
        25           25.000000         3.773380431       293.989113512     -1567.551212611     -1563.765279803        14.493893931
        26           26.000000         3.945403396       307.391652662     -1567.752920753     -1563.794583022        13.820793904
        27           27.000000         3.943778519       307.265056331     -1567.755892134     -1563.798773216        13.892701687
        28           28.000000         3.742897298       291.614131889     -1567.486688697     -1563.730040970        13.791170212
        29           29.000000         3.934645338       306.553477955     -1567.776736710     -1563.827942315        13.850742390
        30           30.000000         3.960594823       308.575237052     -1567.757924640     -1563.782756970        13.839535307
        31           31.000000         3.995342994       311.282513499     -1567.799613752     -1563.789246967        14.533933926
        32           32.000000         3.998127988       311.499496060     -1567.833573515     -1563.819938445        13.846043650
        33           33.000000         3.713812378       289.348086861     -1567.472661110     -1563.742851954        13.829145335
        34           34.000000         3.858107991       300.590350952     -1567.673938105     -1563.799367817        13.813487375
        35           35.000000         3.963826042       308.826985640     -1567.792133572     -1563.811362529        14.571906786
        36           36.000000         3.835030961       298.792388685     -1567.539444964     -1563.686969594        13.846976044
        37           37.000000         3.920119550       305.421754409     -1567.682895433     -1563.744831265        13.856817979
        38           38.000000         3.811200917       296.935758088     -1567.553798179     -1563.724143581        13.816926666
        39           39.000000         3.880745386       302.354060638     -1567.632993590     -1563.733290071        13.842182262
        40           40.000000         3.985601415       310.523534018     -1567.827514798     -1563.822430788        13.876519660
        41           41.000000         3.700037142       288.274839833     -1567.434585525     -1563.714534724        13.833546329
        42           42.000000         3.755900944       292.627263291     -1567.526851185     -1563.750440827        14.519779319
        43           43.000000         3.872289491       301.695250564     -1567.698363305     -1563.805072925        14.509103300
        44           44.000000         3.877887179       302.131373969     -1567.671929384     -1563.772538829        14.488640092
        45           45.000000         4.002270373       311.822234825     -1567.853409587     -1563.829114584        14.513963697
        46           46.000000         3.789504574       295.245367003     -1567.539071310     -1563.727002966        13.849748282
        47           47.000000         3.783983067       294.815179033     -1567.556838464     -1563.749772692        14.488161623
        48           48.000000         3.969769628       309.290058381     -1567.806966722     -1563.813589863        13.839100219
        49           49.000000         3.811084635       296.926698408     -1567.573210448     -1563.737975071        13.850062268
        50           50.000000         3.841730227       299.314337454     -1567.643105161     -1563.776690819        13.829113483
        51           51.000000         3.843618363       299.461444697     -1567.708870538     -1563.840032952        15.215704527
        52           52.000000         3.862578217       300.938632249     -1567.694163702     -1563.805828673        14.554165857
        53           53.000000         4.082383142       318.063927739     -1567.994839801     -1563.886135643        15.212326273
        54           54.000000         3.871933739       301.667533486     -1567.722792266     -1563.823933982        14.522848221
        55           55.000000         3.766691895       293.468000732     -1567.600635034     -1563.806429665        14.528495690
        56           56.000000         3.879522449       302.258780024     -1567.752994525     -1563.845378005        13.838342093
        57           57.000000         3.788140551       295.139094215     -1567.577152886     -1563.760332957        13.853936478
        58           58.000000         3.888359021       302.947249154     -1567.731291769     -1563.813672633        13.801634792
        59           59.000000         3.813726463       297.132526751     -1567.674998720     -1563.831423808        15.259592425
        60           60.000000         3.735951294       291.072959385     -1567.624484076     -1563.858112419        15.174159210
        61           61.000000         3.983374594       310.350039428     -1567.956119562     -1563.941752129        15.276604120
        62           62.000000         3.868974589       301.436982101     -1567.765953608     -1563.865383434        15.180463037
        63           63.000000         3.758383743       292.820701490     -1567.650547973     -1563.859976659        15.247732641
        64           64.000000         3.777857664       294.337940716     -1567.696840779     -1563.886222834        14.503825886
        65           65.000000         3.700846643       288.337909078     -1567.571875205     -1563.837713702        15.899959531
        66           66.000000         3.924093219       305.731348280     -1567.789859857     -1563.831905997        13.839990422
        67           67.000000         3.886645020       302.813709037     -1567.765201235     -1563.844125419        15.855965173
        68           68.000000         3.717116022       289.605478188     -1567.544634997     -1563.792526432        15.870871268
        69           69.000000         3.888056195       302.923655561     -1567.790216013     -1563.866620648        15.220465919
        70           70.000000         3.838888486       299.092933642     -1567.698305588     -1563.823317655        15.854698667
        71           71.000000         3.850450130       299.993716750     -1567.715442505     -1563.828333257        15.954146696
        72           72.000000         3.859388438       300.690112285     -1567.729933592     -1563.833321962        14.498370510
        73           73.000000         3.691356680       287.598533391     -1567.490549501     -1563.761416739        13.799105262
        74           74.000000         3.920417522       305.444969840     -1567.785659523     -1563.826927309        13.826127807
        75           75.000000         3.981638185       310.214753522     -1567.776440199     -1563.755914892        13.873189231
        76           76.000000         3.830943488       298.473928220     -1567.575086664     -1563.704665700        13.856519900
        77           77.000000         3.888242886       302.938200887     -1567.701307946     -1563.772999528        14.547414437
        78           78.000000         3.776083015       294.199675414     -1567.541477794     -1563.724738636        14.576802539
        79           79.000000         3.858897318       300.651848517     -1567.623884768     -1563.723749399        14.485411189
        80           80.000000         3.930829492       306.256180310     -1567.734449121     -1563.761782812        15.237622721
        81           81.000000         3.715194983       289.455807477     -1567.442774548     -1563.685142571        15.257295927
        82           82.000000         3.848435632       299.836764546     -1567.615350118     -1563.723898182        14.530935783
        83           83.000000         3.924120026       305.733436850     -1567.690841872     -1563.723108256        14.556936542
        84           84.000000         3.890727694       303.131795653     -1567.607838957     -1563.672881087        14.557258094
        85           85.000000         3.943374965       307.233614891     -1567.728078115     -1563.739840362        15.244002925
        86           86.000000         3.729057841       290.535881228     -1567.449950079     -1563.675393904        14.563420242
        87           87.000000         3.805472181       296.489424640     -1567.550103594     -1563.698521463        14.491324743
        88           88.000000         3.962977435       308.760869562     -1567.763162112     -1563.753446791        14.587226927
        89           89.000000         3.809172277       296.777704050     -1567.542308276     -1563.685750727        14.548257079
        90           90.000000         3.871942415       301.668209392     -1567.645048183     -1563.725078970        14.588868396
        91           91.000000         3.841241129       299.276231227     -1567.601035234     -1563.711116550        14.518388866
        92           92.000000         3.837720509       299.001934984     -1567.579430027     -1563.692380566        14.538797390
        93           93.000000         3.998619437       311.537785564     -1567.764315197     -1563.715695506        13.880697958
        94           94.000000         3.786718200       295.028276927     -1567.490760257     -1563.653349491        13.875460165
        95           95.000000         3.769511215       293.687657690     -1567.493673195     -1563.672800072        13.900748121
        96           96.000000         3.904717385       304.221751118     -1567.666086989     -1563.709335105        13.926428197
        97           97.000000         3.828467575       298.281026513     -1567.569747087     -1563.688556449        13.890856661
        98           98.000000         3.928453616       306.071072618     -1567.706526003     -1563.724653184        13.850936398
        99           99.000000         3.818650249       297.516145551     -1567.586853648     -1563.714073046        13.907751590
       100          100.000000         3.733546919       290.885631336     -1567.477928535     -1563.689558034        13.923328470
       101          101.000000         3.901405804       303.963741434     -1567.706845685     -1563.749926804        13.938038960
       102          102.000000         3.757002812       292.713111324     -1567.481766018     -1563.668550463        13.198054738
       103          103.000000         3.748815686       292.075241338     -1567.476893778     -1563.671188865        13.235520426
       104          104.000000         3.828042062       298.247874238     -1567.583759880     -1563.698157909        13.232017932
       105          105.000000         3.763072952       293.186044062     -1567.427122002     -1563.605819451        13.227638749
       106          106.000000         3.914881308       305.013636003     -1567.584835842     -1563.611053814        13.238623394
       107          107.000000         3.805565708       296.496711456     -1567.451791609     -1563.586638098        13.202027610
       108          108.000000         3.686216140       287.198027061     -1567.247342085     -1563.500874427        13.213940408
       109          109.000000         3.859665530       300.711700937     -1567.458500131     -1563.537933827        13.207023390
       110          110.000000         3.776390455       294.223628469     -1567.323769405     -1563.485819711        13.199965620
       111          111.000000         3.782528300       294.701836176     -1567.347266684     -1563.502533741        13.222114904
       112          112.000000         3.785716946       294.950267903     -1567.356176643     -1563.507616323        13.179568401
       113          113.000000         3.686317743       287.205943066     -1567.199549308     -1563.449766696        13.242074506
       114          114.000000         3.896912027       303.613625256     -1567.491829949     -1563.530841199        13.220099095
       115          115.000000         3.854702966       300.325060918     -1567.379718460     -1563.460304257        13.187120292
       116          116.000000         3.731524124       290.728032674     -1567.226667397     -1563.429806083        13.191071492
       117          117.000000         3.818525899       297.506457261     -1567.374140139     -1563.489666192        12.547148718
       118          118.000000         3.728633900       290.502851488     -1567.175949406     -1563.380761277        12.503610378
       119          119.000000         3.832314744       298.580764633     -1567.309109871     -1563.409646737        12.525679730
       120          120.000000         3.847709786       299.780212871     -1567.322981839     -1563.407519733        13.229595965
       121          121.000000         3.658444363       285.034290783     -1567.067391060     -1563.340603393        13.222457768
       122          122.000000         3.808771048       296.746443761     -1567.281342019     -1563.403662827        12.510496370
       123          123.000000         3.807513551       296.648470487     -1567.262669782     -1563.385677754        13.214641059
       124          124.000000         3.756127654       292.644926576     -1567.219067291     -1563.392898293        13.231384210
       125          125.000000         3.833171128       298.647486600     -1567.349648892     -1563.445880941        12.512901312
       126          126.000000         3.686667013       287.233155163     -1567.088924119     -1563.331112529        12.550363721
       127          127.000000         3.800153292       296.075022875     -1567.243335219     -1563.371511591        13.228734745
       128          128.000000         3.888838111       302.984575691     -1567.357220166     -1563.396176217        13.252244538
       129          129.000000         3.733398628       290.874077753     -1567.185667108     -1563.379524030        13.234133366
       130          130.000000         3.830631256       298.449601781     -1567.376497167     -1563.472597557        13.217554767
       131          131.000000         3.785655504       294.945480881     -1567.328486757     -1563.469036512        13.270189863
       132          132.000000         3.765619454       293.384445408     -1567.287207095     -1563.447276831        13.239029186
       133          133.000000         3.871683108       301.648006482     -1567.449413424     -1563.502904931        13.240741495
       134          134.000000         3.716868226       289.586172067     -1567.233607619     -1563.441398573        12.568404101
       135          135.000000         3.809236495       296.782707341     -1567.321568927     -1563.436494208        12.528967923
       136          136.000000         3.915023685       305.024728737     -1567.436557610     -1563.445186603        12.542303331
       137          137.000000         3.806765661       296.590201430     -1567.238271315     -1563.354635228        12.527307361
       138          138.000000         3.876527293       302.025423426     -1567.390860856     -1563.436940063        13.282003377
       139          139.000000         3.773521768       294.000125264     -1567.269111667     -1563.417667780        13.277302405
       140          140.000000         3.761872299       293.092499553     -1567.217281151     -1563.376971911        12.509610835
       141          141.000000         3.897196301       303.635773469     -1567.474657262     -1563.498507681        13.275804019
       142          142.000000         3.735619478       291.047107201     -1567.292009340     -1563.476913004        13.222985545
       143          143.000000         3.780585054       294.550435273     -1567.363924986     -1563.503357795        13.263826139
       144          144.000000         3.861670446       300.867906567     -1567.464252240     -1563.522091699        13.242909374
       145          145.000000         3.809674203       296.816809758     -1567.374609012     -1563.483928636        13.240230825
       146          146.000000         3.917928027       305.251009900     -1567.544206815     -1563.544749389        13.282604262
       147          147.000000         3.781727556       294.639449193     -1567.438607398     -1563.574814112        13.988142552
       148          148.000000         3.735797641       291.060988105     -1567.374483710     -1563.556100173        13.231162561
       149          149.000000         3.894305532       303.410549736     -1567.590107136     -1563.612697671        13.225050475
       150          150.000000         3.786479875       295.009708721     -1567.400555326     -1563.530440062        13.303811442
       151          151.000000         3.810098324       296.849853589     -1567.429892920     -1563.535634967        13.291710099
       152          152.000000         3.809717763       296.820203644     -1567.437084856     -1563.542682144        13.185235498
       153          153.000000         3.751085843       292.252112304     -1567.293913139     -1563.457622448        13.220571898
       154          154.000000         3.927693044       306.011815473     -1567.590900949     -1563.577480774        13.264621967
       155          155.000000         3.826128798       298.098809252     -1567.476487889     -1563.564087650        13.196251269
       156          156.000000         3.759328638       292.894319527     -1567.391881534     -1563.545744296        13.246102812
       157          157.000000         3.887205450       302.857372850     -1567.563279691     -1563.588728742        13.246490236
       158          158.000000         3.830272397       298.421642653     -1567.456693670     -1563.538522301        13.247668423
       159          159.000000         3.926383958       305.909822821     -1567.570346962     -1563.555498708        13.193344329
       160          160.000000         3.891336306       303.179213416     -1567.537548354     -1563.557156371        13.182299111
       161          161.000000         3.747681455       291.986871948     -1567.302763808     -1563.465433606        13.222422583
       162          162.000000         3.897500729       303.659491859     -1567.495084081     -1563.507344191        13.206531132
       163          163.000000         3.845308125       299.593096303     -1567.429188681     -1563.493028871        12.502978433
       164          164.000000         3.786231841       294.990384052     -1567.337685691     -1563.459989225        13.187506106
       165          165.000000         3.842012181       299.336304881     -1567.459077411     -1563.524987265        13.302337857
       166          166.000000         3.745265594       291.798649002     -1567.352679040     -1563.514720259        13.215296492
       167          167.000000         3.878077033       302.146165727     -1567.524078943     -1563.552694992        13.224197133
       168          168.000000         3.891402617       303.184379802     -1567.580144345     -1563.594795704        13.919518426
       169          169.000000         3.722936221       290.058937631     -1567.389282723     -1563.571759365        13.933162084
       170          170.000000         3.804987593       296.451669754     -1567.631249287     -1563.731048347        15.942559469
       171          171.000000         3.761696039       293.078766930     -1567.556814804     -1563.699276774        15.927421467
       172          172.000000         3.784203696       294.832368510     -1567.579151424     -1563.698483419        15.956987169
       173          173.000000         3.851524000       300.077383401     -1567.689509296     -1563.740891953        15.955545515
       174          174.000000         3.705181923       288.675676570     -1567.409222997     -1563.606318907        14.599072507
       175          175.000000         3.823143709       297.866237040     -1567.565296401     -1563.643814749        15.925691662
       176          176.000000         3.875761995       301.965798023     -1567.626076611     -1563.651342487        14.598513469
       177          177.000000         3.772291479       293.904271807     -1567.484477122     -1563.612570738        15.269243140
       178          178.000000         3.840626135       299.228316202     -1567.600486585     -1563.659605119        14.555950297
       179          179.000000         3.746263368       291.876386878     -1567.469091675     -1563.621928853        14.547225285
       180          180.000000         3.789510005       295.245790161     -1567.478638020     -1563.587593999        13.881058492
       181          181.000000         3.903665260       304.139778685     -1567.660643745     -1563.654794988        14.585705627
       182          182.000000         3.746003365       291.856129712     -1567.433976840     -1563.585128247        13.874591487
       183          183.000000         3.794420669       295.628386587     -1567.512676467     -1563.614761506        13.826412875
       184          184.000000         3.810834985       296.907247833     -1567.648546145     -1563.733561836        14.577379212
       185          185.000000         3.738645712       291.282885081     -1567.541699426     -1563.698251883        15.931607930
       186          186.000000         3.823436774       297.889070125     -1567.697719043     -1563.768832746        15.914785990
       187          187.000000         3.706976019       288.815456975     -1567.507462257     -1563.694389779        14.576134687
       188          188.000000         3.726196490       290.312949592     -1567.529380468     -1563.696461475        14.503543165
       189          189.000000         3.857876920       300.572347885     -1567.702533059     -1563.737304668        13.870247865
       190          190.000000         3.749839027       292.154971239     -1567.564268572     -1563.706439657        13.812699873
       191          191.000000         3.776088462       294.200099831     -1567.629460754     -1563.744755353        14.577973105
       192          192.000000         3.739422360       291.343394791     -1567.560561453     -1563.711900244        14.547954254
       193          193.000000         3.691151446       287.582543341     -1567.482426995     -1563.681432000        14.564467117
       194          194.000000         3.842261363       299.355718952     -1567.688161841     -1563.735458802        14.534335913
       195          195.000000         3.765809749       293.399271573     -1567.571468509     -1563.694608837        14.531924177
       196          196.000000         3.780464247       294.541023068     -1567.585294892     -1563.693180428        13.908669943
       197          197.000000         3.903510415       304.127714472     -1567.729482814     -1563.713710672        13.840568742
       198          198.000000         3.844883798       299.560036438     -1567.604664661     -1563.646884718        13.819584528
       199          199.000000         3.933028199       306.427484501     -1567.736784277     -1563.690208342        13.831302796
       200          200.000000         3.882445739       302.486537473     -1567.681181789     -1563.684507933        13.832066804
       201          201.000000         3.777009909       294.271890973     -1567.532111941     -1563.640189456        13.925319480
       202          202.000000         3.910070404       304.638811988     -1567.720695506     -1563.695021389        13.838065799
       203          203.000000         3.867930687       301.355650318     -1567.629830812     -1563.645576388        13.848105501
       204          204.000000         3.886884832       302.832393103     -1567.675916657     -1563.671971642        14.491515459
       205          205.000000         3.948298197       307.617190490     -1567.763908317     -1563.697783404        14.506194890
       206          206.000000         3.847909812       299.795797214     -1567.646902661     -1563.680373544        15.158359246
       207          207.000000         3.934359452       306.531204195     -1567.807369189     -1563.753580278        14.470405539
       208          208.000000         3.882601301       302.498657465     -1567.711593990     -1563.708721005        13.807869857
       209          209.000000         3.777734664       294.328357612     -1567.562973299     -1563.664121402        13.778815672
       210          210.000000         3.891118264       303.162225489     -1567.670633743     -1563.657545473        13.759581450
       211          211.000000         3.844744899       299.549214592     -1567.588079725     -1563.620485012        13.839051517
       212          212.000000         3.882580264       302.497018471     -1567.630716051     -1563.624390413        13.808907868
       213          213.000000         3.932924862       306.419433410     -1567.722701461     -1563.665102489        14.469337283
       214          214.000000         3.806926617       296.602741663     -1567.530370792     -1563.597822024        13.772536505
       215          215.000000         3.898264421       303.718992090     -1567.688451846     -1563.663608202        14.456693131
       216          216.000000         3.890424267       303.108155239     -1567.679868263     -1563.661873485        14.508835675
       217          217.000000         3.801269366       296.161977718     -1567.489005623     -1563.559164102        13.774385918
       218          218.000000         3.895163038       303.477359172     -1567.652197432     -1563.627448240        13.779737506
       219          219.000000         3.836436536       298.901898917     -1567.553618283     -1563.586554834        13.785816630
       220          220.000000         3.875804048       301.969074398     -1567.603303683     -1563.595817700        13.785078784
       221          221.000000         3.911149305       304.722870660     -1567.664492950     -1563.620574006        13.152458683
       222          222.000000         3.748351639       292.039086845     -1567.452616180     -1563.570400629        13.100658407
       223          223.000000         3.800844714       296.128892467     -1567.544305245     -1563.608515710        13.128698412
       224          224.000000         3.797258309       295.849470929     -1567.538542294     -1563.605245440        13.129803045
       225          225.000000         3.752873756       292.391411003     -1567.481377349     -1563.591372917        13.888379384
       226          226.000000         3.849424709       299.913824888     -1567.655723348     -1563.668067384        13.843153622
       227          227.000000         3.770039760       293.728837391     -1567.527002131     -1563.617616090        13.831515063