#     Step Nr.          Time[fs]        Kin.[a.u.]          Temp[K]            Pot.[a.u.]        Cons Qty[a.u.]        UsedTime[s]
         0            0.000000         3.844830508       300.000000000     -1263.059808832     -1259.214503301         0.000000000
         1            1.000000         3.877204506       302.526040969     -1263.144345558     -1259.265806889        45.102566794
         2            2.000000         3.819966827       298.059965345     -1263.042237239     -1259.220075587        11.667454482
         3            3.000000         3.803513611       296.776172829     -1262.934843879     -1259.128286881        11.090718305
         4            4.000000         3.968633693       309.659972076     -1263.190159020     -1259.217620497        11.676012091
         5            5.000000         3.840093736       299.630404605     -1263.042134459     -1259.197252747        11.070761636
         6            6.000000         3.790782052       295.782769428     -1262.974965779     -1259.178531583        11.142985322
         7            7.000000         3.883283297       303.000349844     -1263.103859282     -1259.214061997        11.069201091
         8            8.000000         3.883181561       302.992411687     -1263.069397227     -1259.178823976        11.096958460
         9            9.000000         4.000838355       312.172800319     -1263.202806779     -1259.193674742        11.055495180
        10           10.000000         3.901073803       304.388486891     -1263.075724792     -1259.165426895        11.121970208
        11           11.000000         3.810726500       297.338971791     -1262.929425996     -1259.108555768        11.051269908
        12           12.000000         3.987585032       311.138685344     -1263.157136328     -1259.158477670        11.062769864
        13           13.000000         3.964044926       309.301925055     -1263.075870674     -1259.099779683        11.065221367
        14           14.000000         3.961645494       309.114704932     -1263.045283697     -1259.070597752        11.098844477
        15           15.000000         3.961714135       309.120060789     -1263.067172736     -1259.091399963        11.067771786
        16           16.000000         3.895186587       303.929126001     -1262.958139384     -1259.047862447        11.108441544
        17           17.000000         4.054286124       316.343161158     -1263.154824399     -1259.084387768        11.082696473
        18           18.000000         3.996203470       311.811154859     -1263.111922665     -1259.098457270        11.074928126
        19           19.000000         3.848685586       300.300799592     -1262.930102971     -1259.063044070        11.052497285
        20           20.000000         3.933441153       306.914009166     -1263.128535974     -1259.175612564        11.074404863
        21           21.000000         3.934435409       306.991587815     -1263.110336568     -1259.155282166        11.116401211
        22           22.000000         4.026360382       314.164203618     -1263.220563041     -1259.172412999        11.044989315
        23           23.000000         4.020580456       313.713214202     -1263.187728608     -1259.144140401        11.040577634
        24           24.000000         3.851910546       300.552432986     -1262.962895369     -1259.086754364        10.527581259
        25           25.000000         3.966185036       309.468911081     -1263.136165455     -1259.144527749        11.062814433
        26           26.000000         3.973902952       310.071115761     -1263.144483614     -1259.143865407        10.512215687
        27           27.000000         3.873724797       302.254530210     -1262.968197241     -1259.066486883        11.043005038
        28           28.000000         3.872126864       302.129848520     -1263.004788580     -1259.103415227        11.139668863
        29           29.000000         3.795267048       296.132719481     -1262.896809004     -1259.071045125        11.047638223
        30           30.000000         3.941646681       307.554260642     -1263.062101432     -1259.088702142        10.501785569
        31           31.000000         4.005438751       312.531754710     -1263.178842136     -1259.140344721        11.098313347
        32           32.000000         3.818315004       297.931078815     -1262.928449089     -1259.075765373        11.034793063
        33           33.000000         3.836181800       299.325168562     -1262.983917554     -1259.112087502        10.498009102
        34           34.000000         3.834025323       299.156905455     -1262.949108800     -1259.078157500        11.104686183
        35           35.000000         3.857094574       300.956926361     -1263.027997635     -1259.132699795        11.052614748
        36           36.000000         3.908086550       304.935669462     -1263.108566264     -1259.160986240        11.067842363
        37           37.000000         3.756297688       293.092063203     -1262.908045678     -1259.110976200        11.079426899
        38           38.000000         3.843308323       299.881228707     -1262.985628428     -1259.100295307        11.041612575
        39           39.000000         3.971031915       309.847097802     -1263.112657200     -1259.098314344        11.088521413
        40           40.000000         3.886304382       303.236075592     -1263.000706109     -1259.069780559        10.491820852
        41           41.000000         3.887406968       303.322106878     -1263.031097268     -1259.097765707        11.094191425
        42           42.000000         3.805157335       296.904427369     -1262.901681308     -1259.049306726        11.049281836
        43           43.000000         3.846120242       300.100633828     -1262.950280298     -1259.055665698        11.061628006
        44           44.000000         3.984508368       310.898622893     -1263.131337647     -1259.097029076        11.042323412
        45           45.000000         3.845775117       300.073704809     -1262.959766376     -1259.062868188        11.103403013
        46           46.000000         3.830400541       298.874075144     -1262.939432552     -1259.056613145        11.084613292
        47           47.000000         3.894659047       303.887963738     -1263.069243520     -1259.120867013        11.039638357
        48           48.000000         3.884250594       303.075824996     -1263.035452187     -1259.096173065        11.734189425
        49           49.000000         3.941969157       307.579422437     -1263.130816104     -1259.132494610        11.070547130
        50           50.000000         3.800754502       296.560888192     -1262.971876082     -1259.113450206        11.626483127
        51           51.000000         3.777791406       294.769150249     -1262.938570895     -1259.101828078        11.121805417
        52           52.000000         3.946475506       307.931038650     -1263.156626481     -1259.149909095        11.052871645
        53           53.000000         3.880913124       302.815412722     -1263.071798976     -1259.129327313        11.076687552
        54           54.000000         3.841696610       299.755471763     -1263.047872561     -1259.143316364        11.043713652
        55           55.000000         3.788268756       295.586664799     -1262.997150904     -1259.144744105        11.061644135
        56           56.000000         3.754826262       292.977252458     -1262.939844715     -1259.119633209        11.039167885
        57           57.000000         3.907332726       304.876850964     -1263.143193985     -1259.169228774        11.063274229
        58           58.000000         3.824652788       298.425596143     -1263.009946103     -1259.117401985        11.069766432
        59           59.000000         3.736720714       291.564533677     -1262.944992229     -1259.139159649        11.612901789
        60           60.000000         3.821474055       298.177569572     -1263.062058984     -1259.170276709        11.606615749
        61           61.000000         3.819530892       298.025950731     -1263.036258553     -1259.145223399        11.632291270
        62           62.000000         3.872674824       302.172604124     -1263.134214016     -1259.188841384        11.603848786
        63           63.000000         3.786846121       295.475661089     -1263.043632510     -1259.182904880        11.602646373
        64           64.000000         3.674797910       286.732892566     -1262.903850876     -1259.154036951        11.059152297
        65           65.000000         3.823872389       298.364704035     -1263.078520750     -1259.178526047        11.090281878
        66           66.000000         3.831145270       298.932184011     -1263.072193082     -1259.163810632        11.096380799
        67           67.000000         3.774924394       294.545446356     -1262.998971975     -1259.145713841        11.657315447
        68           68.000000         3.780631409       294.990746708     -1263.054447157     -1259.194411883        11.040618934
        69           69.000000         3.750886832       292.669871161     -1263.008559112     -1259.177221974        11.611125942
        70           70.000000         3.890425238       303.557612951     -1263.201228593     -1259.229312810        12.224194411
        71           71.000000         3.884959177       303.131113458     -1263.182553806     -1259.215047046        11.623679736
        72           72.000000         3.725004053       290.650319531     -1262.977302005     -1259.168718631        11.654137034
        73           73.000000         3.782838421       295.162952947     -1263.065723400     -1259.198312876        11.661898037
        74           74.000000         3.816801575       297.812990738     -1263.098566432     -1259.196207557        11.627222762
        75           75.000000         3.842761310       299.838546999     -1263.102283857     -1259.172984990        11.641804812
        76           76.000000         3.829070242       298.770276153     -1263.106983912     -1259.190402625        11.631645922
        77           77.000000         3.696032398       288.389752720     -1262.952486533     -1259.168000955        11.081793616
        78           78.000000         3.793667609       296.007920325     -1263.102604575     -1259.219576336        11.057644712
        79           79.000000         3.873346215       302.224990709     -1263.194476713     -1259.230858254        11.629354718
        80           80.000000         3.797491328       296.306273065     -1263.101709693     -1259.213038922        11.624144868
        81           81.000000         3.798336424       296.372213241     -1263.123224441     -1259.232824375        11.622316816
        82           82.000000         3.757929348       293.219376480     -1263.095421551     -1259.244565641        12.168463117
        83           83.000000         3.834559816       299.198610252     -1263.177222865     -1259.248890251        12.200052334
        84           84.000000         3.910534744       305.126694284     -1263.171135878     -1259.165973677        11.610088703
        85           85.000000         3.783732378       295.232705564     -1262.985054218     -1259.105843756        11.624054627
        86           86.000000         3.810776502       297.342873297     -1262.994308946     -1259.087229508        11.108667174
        87           87.000000         3.881293736       302.845110706     -1263.107404819     -1259.128984868        11.042434955
        88           88.000000         3.887457251       303.326030277     -1263.113060065     -1259.127645854        11.069655726
        89           89.000000         3.910786657       305.146350304     -1263.159769874     -1259.150189847        11.697044700
        90           90.000000         3.798041122       296.349171717     -1263.010361298     -1259.112696729        11.051097867
        91           91.000000         3.814783110       297.655496301     -1263.028446239     -1259.113232516        11.089776016
        92           92.000000         3.919343812       305.814038148     -1263.152662838     -1259.132078748        11.091037275
        93           93.000000         3.839478327       299.582386136     -1263.026370220     -1259.084835541        11.041917710
        94           94.000000         3.802555698       296.701429867     -1263.004718729     -1259.099309375        11.121259064
        95           95.000000         3.792251921       295.897458637     -1262.891384971     -1258.995501132        11.048620028
        96           96.000000         3.829880210       298.833475406     -1262.991607707     -1259.057330117        11.664867022
        97           97.000000         3.929498821       306.606401461     -1263.107984067     -1259.073316440        11.657770684
        98           98.000000         3.811850603       297.426681985     -1262.968507732     -1259.050713513        11.640460372
        99           99.000000         3.732017529       291.197559011     -1262.893690273     -1259.054985831        11.052029802
       100          100.000000         3.801040975       296.583240774     -1262.992867730     -1259.084422283        11.030294539
       101          101.000000         3.813317964       297.541175558     -1263.038267499     -1259.116835816        11.113165297
       102          102.000000         3.839117637       299.554242646     -1263.077495855     -1259.129563609        11.074915009
       103          103.000000         3.762026454       293.539060781     -1262.989280757     -1259.117752990        11.053933195
       104          104.000000         3.723505599       290.533399945     -1262.934226741     -1259.100564425        10.474875270
       105          105.000000         3.849951845       300.399601786     -1263.089593709     -1259.128847526        10.477287996
       106          106.000000         3.805887146       296.961372257     -1263.021397329     -1259.104079897        11.088506275
       107          107.000000         3.724575599       290.616888641     -1262.940250377     -1259.103632768        11.086865110
       108          108.000000         3.717866609       290.093407315     -1262.949565415     -1259.119078828        11.070668342
       109          109.000000         3.725955950       290.724593052     -1262.928469732     -1259.089344816        11.043666700
       110          110.000000         3.841079223       299.707299074     -1263.044434213     -1259.089653456        11.073878421
       111          111.000000         3.799755190       296.482915042     -1262.972313308     -1259.058327971        10.472396863
       112          112.000000         3.696884454       288.456235903     -1262.851664543     -1259.040045949        11.073842526
       113          113.000000         3.786629874       295.458788076     -1262.966371417     -1259.064532773        11.072296995
       114          114.000000         3.841914714       299.772489766     -1263.010621979     -1259.053031110        11.085987121
       115          115.000000         3.861236320       301.280093720     -1263.014425522     -1259.037046603        11.087588306
       116          116.000000         3.827169833       298.621993177     -1262.977803044     -1259.034027117        11.049768705
       117          117.000000         3.765436173       293.805110386     -1262.888277806     -1259.005785886        11.057912893
       118          118.000000         3.886009839       303.213093307     -1263.030811048     -1259.027307485        11.055548188
       119          119.000000         3.937300759       307.215162076     -1263.066934284     -1259.011689180        11.046260469
       120          120.000000         3.853363381       300.665793143     -1262.955293655     -1258.983525826        11.056068715
       121          121.000000         3.830214079       298.859526145     -1262.952051564     -1259.002979925        11.083744882
       122          122.000000         3.832118291       299.008105795     -1262.854335731     -1258.902914177        11.074261709
       123          123.000000         3.925907312       306.326167303     -1262.990879003     -1258.945221255        11.030016409
       124          124.000000         3.958794081       308.892218236     -1263.060546846     -1258.981536726        11.073562744
       125          125.000000         3.853048895       300.641254762     -1262.920397190     -1258.946655405        10.499080430
       126          126.000000         3.889678972       303.499384162     -1262.971859996     -1258.961014306        11.062195065
       127          127.000000         3.955315276       308.620778039     -1263.016492528     -1258.939524678        11.060186925
       128          128.000000         3.937850117       307.258026736     -1263.028686040     -1258.968678263        11.052411000
       129          129.000000         3.891885786       303.671574937     -1262.997188864     -1258.982630553        11.073395489
       130          130.000000         3.783159780       295.188027542     -1262.854200381     -1258.947859892        11.054331372
       131          131.000000         3.827418127       298.641366824     -1262.913961309     -1258.962871305        11.090154274
       132          132.000000         3.924491415       306.215689349     -1263.013687811     -1258.965030659        10.538435632
       133          133.000000         3.858219201       301.044677436     -1262.936499997     -1258.953611570        11.100004577
       134          134.000000         3.814018757       297.595856223     -1262.907335971     -1258.968152688        11.098296837
       135          135.000000         3.797794743       296.329947598     -1262.884334362     -1258.960893309        11.056173867
       136          136.000000         3.826792396       298.592542986     -1262.935975404     -1258.983066444        11.111913614
       137          137.000000         3.856854563       300.938199069     -1262.959929797     -1258.976492403        11.060913252
       138          138.000000         3.738324574       291.689677775     -1262.840568817     -1258.975205720        11.080587925
       139          139.000000         3.711005753       289.558076325     -1262.818350702     -1258.979881715        11.113824895
       140          140.000000         3.794609124       296.081383788     -1262.887303380     -1258.964830180        11.059588788
       141          141.000000         3.803518336       296.776541468     -1262.883638218     -1258.951865174        11.090916108
       142          142.000000         3.785742277       295.389531668     -1262.855641799     -1258.941266757        11.067321169
       143          143.000000         3.727067405       290.811316382     -1262.793465912     -1258.937407174        11.097149276
       144          144.000000         3.737607740       291.633745535     -1262.787337070     -1258.920405928        11.062877574
       145          145.000000         3.844550529       299.978154096     -1262.913853126     -1258.939663511        11.097954976
       146          146.000000         3.817409314       297.860410650     -1262.899839656     -1258.952478306        11.062484499
       147          147.000000         3.749211317       292.539136019     -1262.847750337     -1258.968286928        11.665413559
       148          148.000000         3.763223404       293.632455016     -1262.858311843     -1258.964557634        11.130207510
       149          149.000000         3.812182210       297.452556258     -1262.901756818     -1258.958780311        11.620916643
       150          150.000000         3.872288815       302.142485110     -1262.951334312     -1258.947992384        11.124751663
       151          151.000000         3.802248292       296.677443984     -1262.864632620     -1258.931072693        11.103921333
       152          152.000000         3.725693666       290.704127852     -1262.752781239     -1258.895532938        11.064416522
       153          153.000000         3.812335348       297.464505102     -1262.874072517     -1258.929960636        11.070578652
       154          154.000000         3.877201570       302.525811902     -1262.945995285     -1258.936799692        11.055638022
       155          155.000000         3.871937239       302.115052736     -1262.934554519     -1258.930401184        11.110888030
       156          156.000000         3.817942713       297.902030148     -1262.876836875     -1258.926455360        11.066224653
       157          157.000000         3.784504718       295.292968830     -1262.828115042     -1258.910957981        11.076481641
       158          158.000000         3.871827505       302.106490519     -1262.927021877     -1258.922337766        10.518667747
       159          159.000000         3.874130307       302.286170907     -1262.929901285     -1258.922706137        11.085875900
       160          160.000000         3.784276693       295.275176717     -1262.836474845     -1258.918925613        11.101462793
       161          161.000000         3.771822859       294.303443349     -1262.837694840     -1258.932406195        10.553647493
       162          162.000000         3.807625392       297.097002129     -1262.861250207     -1258.919979959        11.054423446
       163          163.000000         3.888902025       303.438761471     -1262.962097086     -1258.939376139        11.101806560
       164          164.000000         3.891537722       303.644416559     -1262.972975356     -1258.947437291        11.096819067
       165          165.000000         3.801481792       296.617636338     -1262.868238786     -1258.932571752        11.051551286
       166          166.000000         3.808519483       297.166765239     -1262.889639254     -1258.946759290        11.144907259
       167          167.000000         3.839626964       299.593983845     -1262.944163689     -1258.970008171        11.059055674
       168          168.000000         3.815806165       297.735322015     -1262.919073165     -1258.968573972        11.068768634
       169          169.000000         3.775278021       294.573038762     -1262.915372838     -1259.005246139        11.119216170
       170          170.000000         3.742592894       292.022721390     -1262.866071585     -1258.988490472        11.084769671
       171          171.000000         3.802861856       296.725318396     -1262.910199173     -1258.972227942        11.097925469
       172          172.000000         3.854047226       300.719151417     -1262.980895654     -1258.991625622        11.083508918
       173          173.000000         3.793320499       295.980836398     -1262.877541628     -1258.948886876        11.126930927
       174          174.000000         3.761230072       293.476921552     -1262.873140238     -1258.976476087        11.104025819
       175          175.000000         3.792357210       295.905674027     -1262.909714640     -1258.981839181        11.059946373
       176          176.000000         3.841251030       299.720704606     -1262.958789172     -1258.981945440        11.140275189
       177          177.000000         3.849952074       300.399619625     -1262.966612668     -1258.980995177        11.083222681
       178          178.000000         3.775387418       294.581574673     -1262.916491849     -1259.005368527        11.106972058
       179          179.000000         3.772428789       294.350722181     -1262.929999191     -1259.021777131        11.142547497
       180          180.000000         3.856865902       300.939083793     -1263.004263849     -1259.011559314        11.121100455
       181          181.000000         3.883094139       302.985590468     -1263.037631773     -1259.018652360        10.509678709
       182          182.000000         3.846402686       300.122672042     -1262.998493482     -1259.016153234        11.077863863
       183          183.000000         3.806807499       297.033184499     -1262.922417254     -1258.979620582        10.536238993
       184          184.000000         3.845838339       300.078637874     -1262.965540683     -1258.983667569        11.132621071
       185          185.000000         3.917403241       305.662621493     -1263.056728540     -1259.003243574        10.513328358
       186          186.000000         3.893340238       303.785061264     -1263.026158844     -1258.996677769        11.102416085
       187          187.000000         3.846410615       300.123290724     -1262.963226966     -1258.980608241        11.112775594
       188          188.000000         3.854276262       300.737022396     -1262.975509543     -1258.984957070        11.122435701
       189          189.000000         3.886670062       303.264608425     -1263.009322658     -1258.986305940        11.076871805
       190          190.000000         3.904921629       304.688720636     -1263.008620473     -1258.967273736        11.127467859
       191          191.000000         3.850989619       300.480575968     -1262.949849812     -1258.962347346        11.057293050
       192          192.000000         3.809812671       297.267668547     -1262.851978354     -1258.905565291        11.118540598
       193          193.000000         3.870085271       301.970549476     -1262.929823459     -1258.923055153        11.109427831
       194          194.000000         3.903653794       304.589795461     -1262.976934198     -1258.936509922        11.111640764
       195          195.000000         3.852648128       300.609984214     -1262.921047187     -1258.931532311        11.057663310
       196          196.000000         3.801401875       296.611400732     -1262.857983384     -1258.919618929        11.120950950
       197          197.000000         3.805590464       296.938223073     -1262.865045623     -1258.922405263        11.092745631
       198          198.000000         3.845655692       300.064386469     -1262.967423692     -1258.984637833        11.065603300
       199          199.000000         3.832718154       299.054911199     -1262.975169467     -1259.005242341        11.127687388
       200          200.000000         3.761745129       293.517109830     -1262.896821189     -1258.997793524        11.627122117
       201          201.000000         3.748538023       292.486601049     -1262.856636041     -1258.970758061        11.186905966
       202          202.000000         3.798773217       296.406294780     -1262.930173555     -1258.994020417        11.075723207
       203          203.000000         3.825156104       298.464868263     -1262.954797205     -1258.992230775        11.067912393
       204          204.000000         3.785107051       295.339966933     -1262.903681624     -1258.981139624        11.118527927
       205          205.000000         3.730966614       291.115559398     -1262.836863674     -1258.968449933        10.502535813
       206          206.000000         3.765565156       293.815174517     -1262.907354912     -1259.004350589        10.538206336
       207          207.000000         3.830735935       298.900244925     -1263.010002431     -1259.041850179        11.087881373
       208          208.000000         3.811118233       297.369537451     -1262.996432388     -1259.047925521        11.213719094
       209          209.000000         3.767074910       293.932975895     -1262.919869452     -1259.015440370        10.546587351
       210          210.000000         3.774590521       294.519395254     -1262.927016278     -1259.015119590        11.068560453
       211          211.000000         3.830910004       298.913826982     -1262.972495814     -1259.004340349        11.085255247
       212          212.000000         3.851485502       300.519268206     -1262.991911170     -1259.003244724        11.131165018
       213          213.000000         3.781421978       295.052432323     -1262.909468802     -1258.990930435        10.509879935
       214          214.000000         3.750099941       292.608472578     -1262.877352395     -1258.990210733        11.104912814
       215          215.000000         3.821881826       298.209386675     -1262.943293876     -1258.984460958        11.092181592
       216          216.000000         3.873588275       302.243877832     -1262.993711272     -1258.983268391        11.096243459
       217          217.000000         3.851318117       300.506207620     -1262.965834989     -1258.977754525        11.092465283
       218          218.000000         3.793063008       295.960745199     -1262.930282590     -1259.000547479        11.068363578
       219          219.000000         3.786270467       295.430744643     -1262.952184034     -1259.029339217        11.083195940
       220          220.000000         3.854750516       300.774026910     -1263.031959121     -1259.040741843        11.105650721
       221          221.000000         3.865533799       301.615412490     -1263.053754909     -1259.051861723        11.120685586
       222          222.000000         3.806465972       297.006536204     -1262.991772990     -1259.049051201        14.208889726
       223          223.000000         3.796463094       296.226043180     -1262.991974909     -1259.059364265        11.061624110
       224          224.000000         3.840467072       299.659534849     -1263.039902589     -1259.063404196        11.117647859
       225          225.000000         3.882339781       302.926730271     -1263.073946230     -1259.055692746        11.085811315
       226          226.000000         3.845883538       300.082164608     -1263.024887128     -1259.043201221        11.158201056
       227          227.000000         3.763948249       293.689012394     -1262.915638695     -1259.015997834        11.065474398