#     Step Nr.          Time[fs]        Kin.[a.u.]          Temp[K]            Pot.[a.u.]        Cons Qty[a.u.]        UsedTime[s]
         0            0.000000         3.843405441       300.000000000     -1423.488800000     -1419.644919536         0.000000000
         1            1.000000         3.672339743       286.647333909     -1423.269519363     -1419.595873138        47.653503509
         2            2.000000         3.631913812       283.491856456     -1423.239446962     -1419.605448001        13.006113805
         3            3.000000         3.673840557       286.764481107     -1423.305810244     -1419.629144002        13.027665686
         4            4.000000         3.649924632       284.897704997     -1423.258638904     -1419.605179958        12.991764164
         5            5.000000         3.735647471       291.588867838     -1423.360693491     -1419.620831674        13.045509258
         6            6.000000         3.688009425       287.870443150     -1423.322324606     -1419.629441109        13.049871556
         7            7.000000         3.731160016       291.238596067     -1423.359754310     -1419.623088660        13.020251693
         8            8.000000         3.880876455       302.924829120     -1423.554596055     -1419.667585431        13.076496294
         9            9.000000         3.758357259       293.361497996     -1423.403689160     -1419.638566046        13.018320400
        10           10.000000         3.673092773       286.706112281     -1423.342807193     -1419.662349361        13.039200190
        11           11.000000         3.632584998       283.544246369     -1423.302737940     -1419.662229943        13.075707208
        12           12.000000         3.671010609       286.543587327     -1423.319743199     -1419.640289869        13.073861303
        13           13.000000         3.900795531       304.479628089     -1423.598921902     -1419.689173880        13.018288478
        14           14.000000         3.878030693       302.702700966     -1423.546316244     -1419.658803766        13.047033340
        15           15.000000         3.831466169       299.068070775     -1423.476811597     -1419.635332395        12.382522712
        16           16.000000         3.916095659       305.673891446     -1423.588303008     -1419.661659169        12.356315682
        17           17.000000         3.869060174       302.002500127     -1423.545724339     -1419.665566490        12.386514002
        18           18.000000         3.884534512       303.210361560     -1423.601758140     -1419.705571480        13.035916965
        19           19.000000         3.791680456       295.962566018     -1423.543309042     -1419.739421523        13.033787230
        20           20.000000         3.718585910       290.257114454     -1423.428182583     -1419.696855787        13.118490465
        21           21.000000         3.944763188       307.911557692     -1423.714665747     -1419.756633935        13.091028661
        22           22.000000         4.002787791       312.440713198     -1423.778830398     -1419.762209424        13.098674715
        23           23.000000         3.960855283       309.167638709     -1423.656124639     -1419.680839489        13.138846440
        24           24.000000         3.940967132       307.615253637     -1423.650026119     -1419.694011634        13.102687297
        25           25.000000         3.851220079       300.609977582     -1423.586720708     -1419.719825622        13.119818389
        26           26.000000         3.956289305       308.811237748     -1423.746047647     -1419.773447040        13.118549058
        27           27.000000         3.926646239       306.497425158     -1423.731644682     -1419.788024216        13.776016718
        28           28.000000         3.794158685       296.156006165     -1423.603551540     -1419.791754308        13.136689240
        29           29.000000         3.913426531       305.465550615     -1423.736418198     -1419.804692549        13.116163757
        30           30.000000         3.956015549       308.789869506     -1423.755390090     -1419.780387613        13.116126992
        31           31.000000         3.978152688       310.517801125     -1423.782970021     -1419.785113183        13.130701851
        32           32.000000         3.922006140       306.135238615     -1423.747267398     -1419.804816230        13.130135268
        33           33.000000         3.739749941       291.909089298     -1423.470899378     -1419.709972184        13.109098498
        34           34.000000         3.852382245       300.700691423     -1423.621803796     -1419.747530817        13.108315447
        35           35.000000         3.937260636       307.325940202     -1423.674297084     -1419.714411309        12.418503851
        36           36.000000         3.874459519       302.423950170     -1423.659677377     -1419.761839739        13.139673769
        37           37.000000         3.900296300       304.440660195     -1423.714342265     -1419.789908600        13.080819400
        38           38.000000         3.848138857       300.369470422     -1423.596433341     -1419.723389655        13.173607742
        39           39.000000         3.913114632       305.441205103     -1423.661619688     -1419.722826208        13.113712749
        40           40.000000         3.938287596       307.406100321     -1423.728444956     -1419.763680891        12.424383076
        41           41.000000         3.748183684       292.567391707     -1423.477144419     -1419.701688417        13.126696406
        42           42.000000         3.779859821       295.039897179     -1423.558991112     -1419.751091352        13.130809488
        43           43.000000         3.872596726       302.278548424     -1423.658476062     -1419.757068795        13.137168279
        44           44.000000         3.930339504       306.785705828     -1423.637163356     -1419.677221023        12.394015977
        45           45.000000         3.994208778       311.771071661     -1423.746803723     -1419.722167837        13.145477351
        46           46.000000         3.855978832       300.981425760     -1423.558277351     -1419.671027778        13.092627149
        47           47.000000         3.881480831       302.972004149     -1423.596838975     -1419.683247542        13.124979947
        48           48.000000         3.965070289       309.496644305     -1423.714172741     -1419.716129195        12.435415711
        49           49.000000         3.832176753       299.123536004     -1423.607757844     -1419.741729824        13.188190790
        50           50.000000         3.818931338       298.089654862     -1423.627326385     -1419.773679744        13.117813408
        51           51.000000         3.805483657       297.039985623     -1423.604549801     -1419.763492998        13.147041641
        52           52.000000         3.862553413       301.494609783     -1423.647558900     -1419.748573709        13.133655930
        53           53.000000         3.990395383       311.473414194     -1423.791814695     -1419.764100658        13.127463713
        54           54.000000         3.836142344       299.433073322     -1423.594426219     -1419.720056960        13.105559835
        55           55.000000         3.785966227       295.516537472     -1423.522323876     -1419.697243215        13.151597023
        56           56.000000         3.865471362       301.722372591     -1423.615315400     -1419.709845131        13.161508283
        57           57.000000         3.834184030       299.280215553     -1423.616762490     -1419.741686089        13.143875644
        58           58.000000         3.867821433       301.905809228     -1423.613516335     -1419.703907231        13.145492487
        59           59.000000         3.770706800       294.325451027     -1423.519802974     -1419.706417204        13.109176330
        60           60.000000         3.752854387       292.931967047     -1423.445134418     -1419.648733731        13.161711616
        61           61.000000         3.916137235       305.677136737     -1423.635600152     -1419.675044330        13.114340479
        62           62.000000         3.828685725       298.851041067     -1423.544017334     -1419.670022022        13.098535186
        63           63.000000         3.740576663       291.973619717     -1423.454142208     -1419.667386272        13.144074906
        64           64.000000         3.734089431       291.467253830     -1423.449944601     -1419.668833403        13.161439016
        65           65.000000         3.760486297       293.527681708     -1423.445376918     -1419.637042963        12.411263037
        66           66.000000         3.927921612       306.596975413     -1423.612049874     -1419.635444676        12.448609155
        67           67.000000         3.857677703       301.114032465     -1423.529141544     -1419.621920947        13.092419827
        68           68.000000         3.751851018       292.853648276     -1423.461501136     -1419.659263614        13.114567081
        69           69.000000         3.853082160       300.755323761     -1423.629113119     -1419.724812645        13.114124402
        70           70.000000         3.859768878       301.277260766     -1423.587650752     -1419.675818583        13.113782799
        71           71.000000         3.886037428       303.327672852     -1423.609641751     -1419.670686845        13.143465674
        72           72.000000         3.826813350       298.704891393     -1423.570080544     -1419.689490946        13.163473710
        73           73.000000         3.750117504       292.718337536     -1423.381836900     -1419.577101368        12.415756738
        74           74.000000         3.958915055       309.016192696     -1423.646052308     -1419.631672478        13.109877121
        75           75.000000         4.004096112       312.542835210     -1423.740724148     -1419.680266980        13.122297229
        76           76.000000         3.916984652       305.743282455     -1423.661178843     -1419.686909989        13.120169045
        77           77.000000         3.907478535       305.001275140     -1423.677157402     -1419.711463728        13.154710729
        78           78.000000         3.841679208       299.865257511     -1423.578763084     -1419.677933227        12.403696222
        79           79.000000         3.937435467       307.339586748     -1423.750995283     -1419.753464175        13.129691264
        80           80.000000         3.932034945       306.918044829     -1423.827089495     -1419.833984195        13.169057313
        81           81.000000         3.790644228       295.881682479     -1423.606082252     -1419.753394650        13.176976254
        82           82.000000         3.895562492       304.071159176     -1423.751515882     -1419.792943842        13.830495685
        83           83.000000         3.942214890       307.712648320     -1423.786495194     -1419.780274213        13.125952562
        84           84.000000         3.932063614       306.920282621     -1423.731797157     -1419.734705329        13.127879020
        85           85.000000         3.912347036       305.381289804     -1423.727686397     -1419.749272857        12.425493700
        86           86.000000         3.769234973       294.210566389     -1423.542968033     -1419.706636957        12.444319300
        87           87.000000         3.858706827       301.194361553     -1423.672147169     -1419.745328652        12.436660627
        88           88.000000         3.915950732       305.662579066     -1423.767799951     -1419.782697964        12.412083467
        89           89.000000         3.781029929       295.131230900     -1423.588679813     -1419.737457662        12.442220518
        90           90.000000         3.780500840       295.089932433     -1423.616143224     -1419.764434425        13.142539678
        91           91.000000         3.767737294       294.093663925     -1423.604906219     -1419.764957673        13.147890372
        92           92.000000         3.846795980       300.264651153     -1423.693543246     -1419.773534683        13.112655511
        93           93.000000         3.891556035       303.758431995     -1423.744242182     -1419.778454150        13.113510238
        94           94.000000         3.698136600       288.660927637     -1423.522822454     -1419.749448451        13.112095030
        95           95.000000         3.733176741       291.396013090     -1423.567022279     -1419.757644519        12.401360311
        96           96.000000         3.853784250       300.810125973     -1423.708468769     -1419.777517543        12.449536277
        97           97.000000         3.849668157       300.488841161     -1423.661094644     -1419.733277929        12.401326448
        98           98.000000         3.852304948       300.694657913     -1423.648170689     -1419.716732565        12.423717590
        99           99.000000         3.724925286       290.751939315     -1423.473414193     -1419.668386712        12.461516092
       100          100.000000         3.778287744       294.917187494     -1423.556019536     -1419.696687117        12.415461730
       101          101.000000         3.947028109       308.088347895     -1423.767105503     -1419.738070740        12.409407182
       102          102.000000         3.864524103       301.648433585     -1423.662703649     -1419.715183823        13.085864099
       103          103.000000         3.846000310       300.202544473     -1423.650163726     -1419.720183804        12.398343349
       104          104.000000         3.849725138       300.493288801     -1423.655284672     -1419.720595116        12.415130170
       105          105.000000         3.883074172       303.096373640     -1423.685019803     -1419.715987912        12.419026250
       106          106.000000         4.006276020       312.712989660     -1423.854850001     -1419.761590566        12.408878498
       107          107.000000         3.861065896       301.378500498     -1423.631622260     -1419.682522059        12.396602372
       108          108.000000         3.791864849       295.976959024     -1423.566430758     -1419.685502126        12.384416802
       109          109.000000         3.902829440       304.638386443     -1423.703852001     -1419.710927783        12.414369512
       110          110.000000         3.888532022       303.522390335     -1423.674951235     -1419.695269930        12.397964219
       111          111.000000         3.907943522       305.037570070     -1423.730148144     -1419.729988431        13.132317657
       112          112.000000         3.820629012       298.222168112     -1423.670545026     -1419.756630284        12.397987969
       113          113.000000         3.787844830       295.663173302     -1423.635667818     -1419.753485877        12.431193821
       114          114.000000         3.961761541       309.238377417     -1423.837861878     -1419.780696716        12.371741695
       115          115.000000         3.899697981       304.393957952     -1423.751277832     -1419.755074664        12.394844014
       116          116.000000         3.810603827       297.439644476     -1423.678472723     -1419.770271162        12.424601873
       117          117.000000         3.819792086       298.156841216     -1423.697055248     -1419.778586804        12.436024234
       118          118.000000         3.795376340       296.251051146     -1423.646989895     -1419.751864829        13.072565837
       119          119.000000         3.891803533       303.777750692     -1423.779363091     -1419.786733546        12.410555439
       120          120.000000         3.816225626       297.878458363     -1423.700143517     -1419.782004976        12.441866888
       121          121.000000         3.705982764       289.273366096     -1423.560598468     -1419.751646955        12.416277193
       122          122.000000         3.832779605       299.170592100     -1423.701056162     -1419.764269728        12.365294831
       123          123.000000         3.855952482       300.979369045     -1423.705235709     -1419.744221182        12.403359795
       124          124.000000         3.870923973       302.147980348     -1423.735373122     -1419.758323230        12.392597694
       125          125.000000         3.830723224       299.010079663     -1423.711346468     -1419.773431733        12.374311453
       126          126.000000         3.724887681       290.749004100     -1423.565315233     -1419.732193718        12.381729741
       127          127.000000         3.870435462       302.109849299     -1423.758627397     -1419.778926636        12.363977626
       128          128.000000         3.891823211       303.779286668     -1423.777390926     -1419.775244986        12.354504539
       129          129.000000         3.788662319       295.726983001     -1423.644614057     -1419.744575284        12.403247278
       130          130.000000         3.832580515       299.155051983     -1423.711003571     -1419.766007389        12.384950595
       131          131.000000         3.829543649       298.918006995     -1423.671216818     -1419.728215248        12.368484480
       132          132.000000         3.918630463       305.871747530     -1423.779837575     -1419.746694931        12.362603720
       133          133.000000         3.919096333       305.908111403     -1423.785069798     -1419.750381055        12.367835974
       134          134.000000         3.751820931       292.851299814     -1423.525450667     -1419.656968496        12.396671541
       135          135.000000         3.828552575       298.840647993     -1423.637426805     -1419.691168241        12.365353128
       136          136.000000         3.877396222       302.653176824     -1423.708010157     -1419.711848972        12.359918902
       137          137.000000         3.839286532       299.678495301     -1423.649964468     -1419.690847375        12.338887615
       138          138.000000         3.838339819       299.604598937     -1423.669103851     -1419.709872690        12.320868922
       139          139.000000         3.737323929       291.719725073     -1423.545537850     -1419.686278910        12.377228092
       140          140.000000         3.830064698       298.958677936     -1423.679382917     -1419.726356510        12.324032906
       141          141.000000         3.901203931       304.511506067     -1423.781172364     -1419.755960662        12.384989034
       142          142.000000         3.752907744       292.936131835     -1423.606251068     -1419.728293621        12.333311981
       143          143.000000         3.752428449       292.898720144     -1423.630088331     -1419.751602365        12.342781730
       144          144.000000         3.772047681       294.430114530     -1423.642887895     -1419.743789482        12.310518354
       145          145.000000         3.839760530       299.715493595     -1423.694305276     -1419.726502094        12.357390929
       146          146.000000         3.924696869       306.345265605     -1423.835973760     -1419.782222602        12.345319903
       147          147.000000         3.775279302       294.682361227     -1423.643866188     -1419.738518922        12.359881060
       148          148.000000         3.781119872       295.138251464     -1423.658225428     -1419.746052382        12.315675858
       149          149.000000         3.877158493       302.634620669     -1423.789454149     -1419.780254186        12.362362063
       150          150.000000         3.830482528       298.991291963     -1423.725667075     -1419.762145273        12.339385400
       151          151.000000         3.846369218       300.231339852     -1423.768807420     -1419.788406228        12.343292937
       152          152.000000         3.777849055       294.882945314     -1423.713708051     -1419.800842750        12.343007084
       153          153.000000         3.820308403       298.197142703     -1423.770703022     -1419.814407880        13.025011795
       154          154.000000         3.968308127       309.749376207     -1423.950562819     -1419.845275283        12.343208984
       155          155.000000         3.854116017       300.836022300     -1423.798338590     -1419.806227778        13.017036699
       156          156.000000         3.796983255       296.376480169     -1423.714601455     -1419.778626932        12.335733162
       157          157.000000         3.800655368       296.663109818     -1423.744748700     -1419.804120558        12.316974139
       158          158.000000         3.777009220       294.817391306     -1423.667512515     -1419.749561043        13.052382788
       159          159.000000         3.862950507       301.525605317     -1423.799327729     -1419.794468409        13.021352582
       160          160.000000         3.767563036       294.080062106     -1423.681835636     -1419.771399435        12.326717332
       161          161.000000         3.713048503       289.824887802     -1423.612106082     -1419.755253203        12.327170905
       162          162.000000         3.838980901       299.654639072     -1423.770030988     -1419.786327356        12.303285513
       163          163.000000         3.804643481       296.974405035     -1423.698721489     -1419.748431083        12.318243669
       164          164.000000         3.780377423       295.080299013     -1423.724974004     -1419.798040461        12.991011987
       165          165.000000         3.732677184       291.357019813     -1423.595817870     -1419.715697398        13.024516400
       166          166.000000         3.696602322       288.541168397     -1423.531935726     -1419.687034492        13.000978852
       167          167.000000         3.846708545       300.257826343     -1423.720288763     -1419.724437434        12.319762917
       168          168.000000         3.804758817       296.983407663     -1423.681919132     -1419.727166150        12.311029002
       169          169.000000         3.721234948       290.463887121     -1423.582872810     -1419.710815367        12.321166566
       170          170.000000         3.771337967       294.374717292     -1423.683991101     -1419.761027161        12.310811313
       171          171.000000         3.751765060       292.846938757     -1423.629489958     -1419.725308473        12.995564859
       172          172.000000         3.811616891       297.518720000     -1423.680805902     -1419.715994540        12.315308185
       173          173.000000         3.768259007       294.134386668     -1423.621276157     -1419.699052221        12.321681814
       174          174.000000         3.680128060       287.255257077     -1423.500531676     -1419.665697682        12.323016893
       175          175.000000         3.833810293       299.251043208     -1423.649207903     -1419.659970795        12.304735253
       176          176.000000         3.877575721       302.667187738     -1423.685774402     -1419.652037096        12.328180820
       177          177.000000         3.830043534       298.957025962     -1423.628598230     -1419.641654594        12.312628668
       178          178.000000         3.798420776       296.488686957     -1423.651201403     -1419.695152283        12.324421139
       179          179.000000         3.714180651       289.913258523     -1423.552761397     -1419.680245674        12.288630681
       180          180.000000         3.815266259       297.803574278     -1423.685140487     -1419.710852119        12.281994380
       181          181.000000         3.824777126       298.545952344     -1423.697634143     -1419.713145975        12.293987343
       182          182.000000         3.704388672       289.148938012     -1423.513069666     -1419.648298133        12.337812437
       183          183.000000         3.778011482       294.895623634     -1423.618278898     -1419.679239691        12.308742857
       184          184.000000         3.811164130       297.483379403     -1423.651214375     -1419.678382621        12.290897040
       185          185.000000         3.845078684       300.130606215     -1423.695774606     -1419.688389418        12.310462607
       186          186.000000         3.828781145       298.858489193     -1423.689983308     -1419.698256472        12.293012984
       187          187.000000         3.662035398       285.843020274     -1423.490093019     -1419.664494621        12.298219841
       188          188.000000         3.730761061       291.207455309     -1423.682376579     -1419.787472873        12.977911890
       189          189.000000         3.832065451       299.114848230     -1423.772023244     -1419.775243665        12.971328350
       190          190.000000         3.783093199       295.292281001     -1423.697108995     -1419.748732274        12.963111546
       191          191.000000         3.775311171       294.684848754     -1423.727770333     -1419.786621441        12.954512665
       192          192.000000         3.717070170       290.138802158     -1423.670587174     -1419.787144460        12.952157946
       193          193.000000         3.791378654       295.939008647     -1423.734052726     -1419.775787113        12.937370894
       194          194.000000         3.884466041       303.205016995     -1423.882127452     -1419.830258448        12.966896994
       195          195.000000         3.752631633       292.914579795     -1423.695347392     -1419.774796767        12.982903274
       196          196.000000         3.744048051       292.244581604     -1423.691498093     -1419.779039160        13.001816191
       197          197.000000         3.805861393       297.069470121     -1423.767473591     -1419.792723658        12.956103358
       198          198.000000         3.862472400       301.488286265     -1423.756790813     -1419.724952188        12.971429134
       199          199.000000         3.935320305       307.174486157     -1423.842580558     -1419.737403800        12.972420335
       200          200.000000         3.801893406       296.759745779     -1423.659540881     -1419.687291133        12.995310823
       201          201.000000         3.778407214       294.926512862     -1423.611146272     -1419.661898166        13.625884300
       202          202.000000         3.888539744       303.522993118     -1423.762905630     -1419.703044277        12.966761701
       203          203.000000         3.853721493       300.805227449     -1423.698562492     -1419.673028191        12.941499809
       204          204.000000         3.848832019       300.423575744     -1423.717654825     -1419.696518133        12.944740480
       205          205.000000         3.803555684       296.889496209     -1423.664031259     -1419.687681761        12.952874508
       206          206.000000         3.817268331       297.959847563     -1423.662307468     -1419.671764208        12.990453092
       207          207.000000         3.945563433       307.974021432     -1423.829656201     -1419.710329627        12.999289110
       208          208.000000         3.840924756       299.806368160     -1423.668969959     -1419.653777098        12.974951187
       209          209.000000         3.748205604       292.569102687     -1423.522947340     -1419.599981022        12.957535414
       210          210.000000         3.778224574       294.912256680     -1423.586972007     -1419.633513256        12.968569927
       211          211.000000         3.776704497       294.793605906     -1423.584247937     -1419.631846944        12.972883197
       212          212.000000         3.855621335       300.953521075     -1423.642186484     -1419.610412192        13.008189946
       213          213.000000         3.792836880       296.052831608     -1423.566940792     -1419.597493894        12.938725151
       214          214.000000         3.720361332       290.395696368     -1423.479112628     -1419.581701651        12.990010526
       215          215.000000         3.834382268       299.295689224     -1423.663706110     -1419.651851064        12.945672108
       216          216.000000         3.823744831       298.465375758     -1423.639645233     -1419.638002757        12.963055199
       217          217.000000         3.786809421       295.582353624     -1423.595335388     -1419.630209789        12.320514183
       218          218.000000         3.749082587       292.637556270     -1423.584849187     -1419.657046238        12.288178828
       219          219.000000         3.709104737       289.517054101     -1423.508669251     -1419.620461604        12.995293127
       220          220.000000         3.841709062       299.867587824     -1423.676325185     -1419.655147256        12.963252353
       221          221.000000         3.837729551       299.556963959     -1423.674462029     -1419.656894190        12.984930864
       222          222.000000         3.754760881       293.080779946     -1423.569656465     -1419.634694145        12.955378935
       223          223.000000         3.806669790       297.132570144     -1423.656829562     -1419.669609847        12.991914464
       224          224.000000         3.806321832       297.105410032     -1423.663182858     -1419.675967776        12.937437240
       225          225.000000         3.851912703       300.664040894     -1423.720060965     -1419.686914843        12.956754120
       226          226.000000         3.834027763       299.268018055     -1423.701058120     -1419.685454319        12.973130155
       227          227.000000         3.726216518       290.852727463     -1423.575748157     -1419.667621462        12.983456748