#     Step Nr.          Time[fs]        Kin.[a.u.]          Temp[K]            Pot.[a.u.]        Cons Qty[a.u.]        UsedTime[s]
         0            0.000000         3.850530776       300.000000000     -1567.608118337     -1563.757112539         0.000000000
         1            1.000000         3.608205814       281.120138295     -1567.274748832     -1563.665245233        53.164641773
         2            2.000000         3.529306576       274.972993197     -1567.196244791     -1563.664894218        15.620326785
         3            3.000000         3.599106642       280.411209603     -1567.311816013     -1563.709976359        15.628779798
         4            4.000000         3.609473070       281.218871931     -1567.137083445     -1563.524228875        13.593595555
         5            5.000000         3.787207191       295.066374869     -1567.413043917     -1563.621832172        14.339941576
         6            6.000000         3.640082483       283.603692145     -1567.274133175     -1563.629440141        14.303319243
         7            7.000000         3.627695867       282.638634393     -1567.243721677     -1563.610858797        14.314346923
         8            8.000000         3.891046940       303.156668530     -1567.582128291     -1563.685375460        14.339533915
         9            9.000000         3.773214214       293.976163278     -1567.389937797     -1563.610469452        15.015345183
        10           10.000000         3.696656653       288.011461401     -1567.335131064     -1563.631699689        15.007341735
        11           11.000000         3.605729723       280.927222706     -1567.243763468     -1563.630779342        14.363652564
        12           12.000000         3.589935036       279.696637552     -1567.118996654     -1563.521378389        13.600915903
        13           13.000000         3.931993959       306.346905472     -1567.539320463     -1563.599237146        12.954476795
        14           14.000000         3.868269407       301.382040448     -1567.461568182     -1563.584781566        12.952999191
        15           15.000000         3.745592366       291.824108223     -1567.297515040     -1563.542985420        13.656798755
        16           16.000000         3.869403593       301.470406409     -1567.336376771     -1563.457630203        12.948149916
        17           17.000000         3.810825380       296.906499512     -1567.151811842     -1563.331234669        12.967102941
        18           18.000000         3.892406828       303.262619216     -1567.231779199     -1563.329214575        12.955898978
        19           19.000000         3.771439468       293.837890437     -1567.102396920     -1563.320391993        12.969059572
        20           20.000000         3.589169092       279.636961823     -1566.907142976     -1563.307032850        12.978315775
        21           21.000000         3.902169751       304.023261577     -1567.306422131     -1563.392967874        12.277902114
        22           22.000000         3.975086629       309.704313038     -1567.412909326     -1563.426171867        12.286720267
        23           23.000000         3.900516787       303.894476970     -1567.315818829     -1563.403262821        13.023341949
        24           24.000000         3.872115758       301.681714784     -1567.321306488     -1563.436756331        12.936140787
        25           25.000000         3.705643647       288.711650070     -1567.049624291     -1563.331159450        12.289519473
        26           26.000000         3.890654339       303.126080433     -1567.299728820     -1563.395884962        12.983334369
        27           27.000000         3.901574086       303.976852506     -1567.298455578     -1563.383309717        12.290903182
        28           28.000000         3.682422716       286.902476362     -1567.017026268     -1563.320654590        12.316596015
        29           29.000000         3.822114360       297.786039073     -1567.219945719     -1563.383532661        12.296036643
        30           30.000000         3.853813939       300.255795591     -1567.267508679     -1563.399045890        12.979286600
        31           31.000000         3.912824280       304.853370189     -1567.333882182     -1563.406052659        12.962793161
        32           32.000000         3.888881781       302.987978103     -1567.344100787     -1563.439844477        13.014055380
        33           33.000000         3.584846535       279.300185671     -1566.991698706     -1563.391122206        12.982204702
        34           34.000000         3.733553634       290.886154469     -1567.213880945     -1563.464288660        12.954064750
        35           35.000000         3.872125366       301.682463375     -1567.382379430     -1563.493917069        12.976875569
        36           36.000000         3.772788000       293.942956396     -1567.154244220     -1563.364820147        12.324393910
        37           37.000000         3.836148868       298.879486309     -1567.299008595     -1563.445936592        12.957457393
        38           38.000000         3.720687637       289.883747473     -1567.129088319     -1563.391198823        12.999149053
        39           39.000000         3.821429559       297.732685318     -1567.258984092     -1563.420093974        13.071580240
        40           40.000000         3.929404348       306.145145470     -1567.419031842     -1563.471905916        12.991097985
        41           41.000000         3.632324751       282.999276880     -1567.072375105     -1563.422067688        12.980139024
        42           42.000000         3.670850070       286.000836002     -1567.150293132     -1563.461241093        12.333534059
        43           43.000000         3.794379455       295.625175544     -1567.292526741     -1563.479753296        12.944705000
        44           44.000000         3.849518753       299.921151919     -1567.323280663     -1563.455183432        12.980225478
        45           45.000000         3.997742930       311.469495720     -1567.530939375     -1563.514425667        12.957092843
        46           46.000000         3.786629820       295.021391097     -1567.275439668     -1563.469827049        12.985099956
        47           47.000000         3.800387757       296.093290351     -1567.288599876     -1563.469028917        12.963779405
        48           48.000000         3.986705413       310.609547998     -1567.536762644     -1563.530673294        12.976316476
        49           49.000000         3.815540446       297.273856601     -1567.290924245     -1563.455779496        12.981562813
        50           50.000000         3.814921954       297.225669058     -1567.325577624     -1563.490837637        12.986631042
        51           51.000000         3.782772676       294.720875845     -1567.263759099     -1563.460962508        12.981323631
        52           52.000000         3.820650570       297.671993234     -1567.270802297     -1563.429932597        12.995603185
        53           53.000000         4.061906962       316.468601195     -1567.556030903     -1563.473702311        12.974954590
        54           54.000000         3.853943811       300.265914159     -1567.272658465     -1563.398057080        12.995800019
        55           55.000000         3.769739489       293.705442873     -1567.197797239     -1563.407167973        12.280808347
        56           56.000000         3.909489710       304.593569391     -1567.411381101     -1563.480777197        12.992674416
        57           57.000000         3.853443729       300.226952099     -1567.289901789     -1563.415108951        12.966860389
        58           58.000000         3.949119188       307.681154987     -1567.435578840     -1563.464868768        12.982302369
        59           59.000000         3.831137275       298.489026391     -1567.294523948     -1563.441538992        12.962270413
        60           60.000000         3.766707337       293.469203844     -1567.124203141     -1563.335398497        12.299138899
        61           61.000000         4.047879725       315.375720396     -1567.535461325     -1563.465234363        12.978455804
        62           62.000000         3.951677548       307.880480217     -1567.459939767     -1563.485626687        13.664188853
        63           63.000000         3.856405448       300.457703577     -1567.362183310     -1563.482838714        13.620287270
        64           64.000000         3.869748802       301.497302102     -1567.405656551     -1563.512662510        12.964853527
        65           65.000000         3.814256776       297.173844185     -1567.295090406     -1563.457280082        12.977000840
        66           66.000000         4.050205499       315.556924605     -1567.559360714     -1563.485284088        12.971175177
        67           67.000000         3.966018940       308.997837235     -1567.428575757     -1563.438326930        12.956504430
        68           68.000000         3.770003990       293.726050448     -1567.182121257     -1563.387518505        12.942428500
        69           69.000000         3.945759548       307.419400951     -1567.383835751     -1563.413114007        12.307922462
        70           70.000000         3.927556832       306.001202964     -1567.303118985     -1563.350212210        12.954036003
        71           71.000000         3.961552375       308.649841161     -1567.354972380     -1563.367661793        12.288517243
        72           72.000000         3.915656709       305.074048490     -1567.352543485     -1563.410697519        12.291516688
        73           73.000000         3.721470660       289.944753810     -1567.069992601     -1563.321902616        12.443358771
        74           74.000000         3.961089914       308.613810205     -1567.467092561     -1563.478962717        13.003383739
        75           75.000000         4.001115291       311.732240898     -1567.499647131     -1563.471035165        12.945709493
        76           76.000000         3.847578713       299.770000864     -1567.320770293     -1563.445215734        12.980077843
        77           77.000000         3.892292601       303.253719597     -1567.413701401     -1563.492952497        12.982315809
        78           78.000000         3.795866352       295.741021653     -1567.276681493     -1563.451873263        12.985917581
        79           79.000000         3.934273435       306.524502530     -1567.444030265     -1563.480328143        13.656588120
        80           80.000000         3.975438793       309.731750572     -1567.521174956     -1563.515790825        13.626679031
        81           81.000000         3.714149914       289.374384708     -1567.180878381     -1563.436259569        13.003586867
        82           82.000000         3.847283625       299.747010121     -1567.319971763     -1563.441717554        12.308247328
        83           83.000000         3.913851214       304.933380003     -1567.394967698     -1563.449629162        13.012653430
        84           84.000000         3.884617283       302.655725363     -1567.326546119     -1563.409907704        12.982376078
        85           85.000000         3.927202454       305.973592909     -1567.408764170     -1563.448992681        12.952697629
        86           86.000000         3.724207581       290.157991018     -1567.146238122     -1563.388911235        12.981427517
        87           87.000000         3.856552322       300.469146671     -1567.346512551     -1563.456307865        12.998918828
        88           88.000000         4.004771562       312.017105818     -1567.485711792     -1563.446728608        12.950896995
        89           89.000000         3.806348003       296.557661120     -1567.212340181     -1563.371197664        12.985422527
        90           90.000000         3.841652215       299.308259429     -1567.315357386     -1563.438337808        12.957714261
        91           91.000000         3.827428040       298.200034980     -1567.320603993     -1563.457232073        12.956210341
        92           92.000000         3.900493846       303.892689547     -1567.388510529     -1563.451489076        12.969865722
        93           93.000000         4.048294796       315.408059170     -1567.605473018     -1563.520032320        12.990262615
        94           94.000000         3.791709248       295.417136164     -1567.284316832     -1563.454816404        12.987286014
        95           95.000000         3.807015644       296.609677894     -1567.325545172     -1563.480111829        12.997167027
        96           96.000000         3.964677036       308.893287703     -1567.497194690     -1563.493458270        12.972712423
        97           97.000000         3.906915132       304.392980594     -1567.355381186     -1563.408732717        13.024460203
        98           98.000000         3.975739842       309.755205717     -1567.439866771     -1563.423697204        12.283349339
        99           99.000000         3.821080762       297.705510040     -1567.247030942     -1563.384805244        12.299994589
       100          100.000000         3.821601925       297.746114562     -1567.262008945     -1563.398555985        12.305076604
       101          101.000000         4.062994660       316.553345189     -1567.560019348     -1563.454437497        12.314046670
       102          102.000000         3.901909004       304.002946461     -1567.332597470     -1563.387316789        12.264971823
       103          103.000000         3.847499738       299.763847754     -1567.292650454     -1563.400994739        12.290486609
       104          104.000000         3.864714967       301.105109310     -1567.347910719     -1563.438249987        12.944001321
       105          105.000000         3.834640366       298.761956927     -1567.267074877     -1563.386690446        13.010364697
       106          106.000000         4.019890843       313.195069202     -1567.494554324     -1563.428094108        12.285550527
       107          107.000000         3.872148895       301.684296564     -1567.314612265     -1563.395029967        12.328112387
       108          108.000000         3.781459681       294.618578635     -1567.217243811     -1563.387498014        12.977021377
       109          109.000000         3.988333868       310.736423115     -1567.535452700     -1563.497964149        13.105180569
       110          110.000000         3.928501364       306.074792722     -1567.416692743     -1563.438120747        12.964118321
       111          111.000000         3.942926064       307.198640437     -1567.453727064     -1563.459791785        13.024708610
       112          112.000000         3.866806144       301.268035717     -1567.359458230     -1563.440685017        12.329995387
       113          113.000000         3.746731224       291.912838130     -1567.248256917     -1563.448612393        13.671041402
       114          114.000000         3.980998919       310.164947409     -1567.597577736     -1563.562706426        13.663037343
       115          115.000000         3.910996969       304.711001944     -1567.492592242     -1563.526713702        14.344524223
       116          116.000000         3.779367024       294.455536965     -1567.321535466     -1563.486281915        13.047805164
       117          117.000000         3.863616553       301.019530400     -1567.444400897     -1563.523896669        12.990541239
       118          118.000000         3.811053837       296.924298924     -1567.329308442     -1563.460351224        13.014332944
       119          119.000000         3.953582859       308.028925570     -1567.513412578     -1563.500890162        13.025149596
       120          120.000000         3.909334166       304.581450716     -1567.489966159     -1563.520615101        12.998301673
       121          121.000000         3.700508244       288.311543994     -1567.256427355     -1563.494840160        13.047844805
       122          122.000000         3.882786598       302.513094229     -1567.471112604     -1563.526196745        13.029922988
       123          123.000000         3.908759587       304.536684503     -1567.461077847     -1563.489095044        13.039462759
       124          124.000000         3.891335764       303.179171139     -1567.435185066     -1563.479507790        13.000513585
       125          125.000000         3.928426883       306.068989849     -1567.509831135     -1563.515919136        13.048133795
       126          126.000000         3.785243722       294.913398375     -1567.282955890     -1563.431075095        13.024157334
       127          127.000000         3.968980465       309.228573636     -1567.461938739     -1563.425154821        13.016727602
       128          128.000000         4.036483692       314.487840231     -1567.509773849     -1563.404247198        12.332557432
       129          129.000000         3.860563685       300.781677398     -1567.273997850     -1563.343122853        12.331996590
       130          130.000000         3.950929036       307.822162623     -1567.424464396     -1563.401946172        12.366139030
       131          131.000000         3.930504928       306.230893063     -1567.385957676     -1563.382542043        12.355971025
       132          132.000000         3.997114457       311.420530534     -1567.459461084     -1563.388072889        12.998492471
       133          133.000000         4.055454825       315.965906634     -1567.532799385     -1563.401640311        12.343988689
       134          134.000000         3.809461871       296.800266689     -1567.213401946     -1563.326789308        12.365095521
       135          135.000000         3.892664274       303.282677160     -1567.351491061     -1563.380243636        12.374633039
       136          136.000000         3.979420849       310.041997886     -1567.578278112     -1563.518785506        13.015810994
       137          137.000000         3.891798936       303.215257548     -1567.426378522     -1563.452981656        13.007418769
       138          138.000000         3.958414606       308.405373399     -1567.493761600     -1563.452198327        13.068535501
       139          139.000000         3.840303473       299.203177180     -1567.331856492     -1563.406830667        13.013401991
       140          140.000000         3.912005901       304.789609155     -1567.413373222     -1563.415061750        13.061155941
       141          141.000000         4.063633363       316.603107418     -1567.628875235     -1563.477276061        13.030062383
       142          142.000000         3.849074506       299.886540082     -1567.374546976     -1563.435809182        13.030279923
       143          143.000000         3.839052832       299.105738060     -1567.444989072     -1563.514602616        13.743519475
       144          144.000000         3.856168727       300.439260337     -1567.393367310     -1563.444178916        13.017076344
       145          145.000000         3.846867733       299.714607462     -1567.332241329     -1563.390650184        13.061154874
       146          146.000000         3.991482150       310.981709942     -1567.559521775     -1563.471563680        13.026324941
       147          147.000000         3.828101725       298.252522696     -1567.350391606     -1563.424029755        13.024953180
       148          148.000000         3.821335972       297.725393797     -1567.362952178     -1563.441596397        14.428236800
       149          149.000000         3.991457309       310.979774549     -1567.588723139     -1563.495435385        14.407862932
       150          150.000000         3.897297398       303.643650056     -1567.414778876     -1563.413786448        13.753735188
       151          151.000000         3.933236186       306.443689061     -1567.484795908     -1563.445986837        13.684932206
       152          152.000000         3.872903786       301.743111127     -1567.383249407     -1563.402872845        13.042195877
       153          153.000000         3.825484200       298.048587766     -1567.343837682     -1563.408989221        13.712783457
       154          154.000000         4.024283005       313.537268453     -1567.629064412     -1563.493474413        13.711323897
       155          155.000000         3.913461791       304.903039481     -1567.473760681     -1563.446987561        13.764269003
       156          156.000000         3.862487806       300.931588199     -1567.394924501     -1563.417136047        13.011430366
       157          157.000000         3.949063673       307.676829717     -1567.528044716     -1563.461665050        13.756173828
       158          158.000000         3.870644625       301.567096853     -1567.434401562     -1563.444397576        13.719693796
       159          159.000000         3.961572670       308.651422443     -1567.584157647     -1563.501160970        15.137808443
       160          160.000000         3.880273517       302.317296719     -1567.487756595     -1563.483965090        14.411698732
       161          161.000000         3.788167291       295.141177531     -1567.335208593     -1563.421462263        13.741630855
       162          162.000000         3.998779360       311.550245390     -1567.558902871     -1563.432449552        13.054671581
       163          163.000000         3.954482780       308.099039623     -1567.464879577     -1563.380553243        13.056429392
       164          164.000000         3.915473117       305.059744620     -1567.427555059     -1563.380065101        13.050691539
       165          165.000000         3.928570467       306.080176630     -1567.460867986     -1563.398095990        13.044193870
       166          166.000000         3.829134781       298.333009461     -1567.310248943     -1563.344736307        13.084623251
       167          167.000000         3.991498729       310.983001661     -1567.527211434     -1563.397136758        13.065400415
       168          168.000000         3.970021074       309.309648856     -1567.517720514     -1563.406860965        13.016770659
       169          169.000000         3.846010972       299.647856032     -1567.354000697     -1563.364909149        13.043419125
       170          170.000000         3.987185430       310.646946754     -1567.552972179     -1563.420455216        13.042096712
       171          171.000000         3.973986702       309.618616235     -1567.502480193     -1563.380853395        13.036799253
       172          172.000000         4.017939778       313.043059176     -1567.561311671     -1563.393391966        13.023075561
       173          173.000000         3.999399711       311.598577748     -1567.559179661     -1563.407425896        13.085853019
       174          174.000000         3.802280999       296.240795383     -1567.332516949     -1563.375553692        13.004111160
       175          175.000000         3.932641355       306.397344944     -1567.527568026     -1563.437946735        13.044690168
       176          176.000000         3.964480364       308.877964740     -1567.559744779     -1563.435935106        13.051787531
       177          177.000000         3.870283753       301.538980858     -1567.430610683     -1563.398659165        13.696068372
       178          178.000000         3.920303318       305.436072011     -1567.502312188     -1563.418022011        13.044961487
       179          179.000000         3.818725570       297.522013886     -1567.321047630     -1563.336036445        13.047857100
       180          180.000000         3.898926894       303.770606281     -1567.484840425     -1563.417354071        13.015593065
       181          181.000000         3.954588148       308.107248942     -1567.601410824     -1563.475958466        13.095518170
       182          182.000000         3.769332802       293.673757311     -1567.394385143     -1563.451926067        13.718603162
       183          183.000000         3.844367974       299.519847835     -1567.472582201     -1563.452888610        13.774306688
       184          184.000000         3.867243049       301.302075521     -1567.509017993     -1563.464246298        13.710559054
       185          185.000000         3.867303528       301.306787518     -1567.480999413     -1563.433978257        13.695544015
       186          186.000000         3.958132673       308.383407625     -1567.623236088     -1563.483190286        13.041210790
       187          187.000000         3.802639033       296.268690309     -1567.446053673     -1563.459334468        13.041460416
       188          188.000000         3.860904161       300.808204308     -1567.508260526     -1563.461167385        13.043828900
       189          189.000000         3.977822079       309.917435562     -1567.651529112     -1563.485385722        13.036290034
       190          190.000000         3.856939942       300.499346668     -1567.481681691     -1563.434298619        13.022953955
       191          191.000000         3.893525375       303.349766657     -1567.563163211     -1563.477120691        13.020734307
       192          192.000000         3.856399863       300.457268437     -1567.556070338     -1563.505103625        13.719231542
       193          193.000000         3.879134071       302.228520962     -1567.601683512     -1563.525965842        13.735681450
       194          194.000000         4.018939260       313.120930107     -1567.793551032     -1563.575993411        14.372970479
       195          195.000000         3.857622474       300.552523674     -1567.592424253     -1563.534161358        13.679245307
       196          196.000000         3.831373900       298.507462194     -1567.576447711     -1563.542488810        13.725955751
       197          197.000000         3.908759169       304.536651906     -1567.704316528     -1563.591050962        13.724703243
       198          198.000000         3.871534932       301.636461856     -1567.639077197     -1563.561130943        13.696473071
       199          199.000000         3.964178916       308.854478527     -1567.780717477     -1563.608237418        13.724445556
       200          200.000000         3.869546760       301.481560712     -1567.660922300     -1563.581203233        14.424523058
       201          201.000000         3.832942721       298.629691102     -1567.639464939     -1563.594541363        15.778362151
       202          202.000000         3.991890835       311.013551207     -1567.850507349     -1563.644834382        15.105453169
       203          203.000000         3.895893289       303.534254057     -1567.711573612     -1563.600097660        15.076285805
       204          204.000000         3.880074144       302.301763328     -1567.712288093     -1563.614882820        15.044858433
       205          205.000000         3.891440546       303.187334910     -1567.785228784     -1563.674740793        15.032729328
       206          206.000000         3.842031045       299.337774630     -1567.695597019     -1563.632841467        15.728872512
       207          207.000000         3.985566312       310.520799142     -1567.897214628     -1563.689261281        15.767438057
       208          208.000000         3.915367597       305.051523441     -1567.794122211     -1563.654705445        15.081510045
       209          209.000000         3.837164841       298.958642149     -1567.693573792     -1563.630753741        15.042344205
       210          210.000000         3.947852335       307.582452739     -1567.878688208     -1563.703603705        15.059964179
       211          211.000000         3.900838075       303.919508947     -1567.766684505     -1563.637046255        15.054410015
       212          212.000000         3.939235425       306.911097793     -1567.818950483     -1563.649373895        15.716772181
       213          213.000000         3.903633096       304.137272777     -1567.783845902     -1563.648351369        15.037803587
       214          214.000000         3.794308050       295.619612267     -1567.625175449     -1563.597541505        15.039398867
       215          215.000000         3.955936143       308.212273025     -1567.842853347     -1563.652157962        15.035534942
       216          216.000000         3.954255267       308.081313779     -1567.788639585     -1563.598181042        15.011102490
       217          217.000000         3.898597824       303.744967943     -1567.711421716     -1563.575203337        15.682281002
       218          218.000000         3.941307510       307.072536692     -1567.752363261     -1563.572043763        14.999298134
       219          219.000000         3.847444144       299.759516351     -1567.598633757     -1563.510815387        15.005581798
       220          220.000000         3.932382620       306.377186567     -1567.720688611     -1563.546601915        15.075264840
       221          221.000000         3.940805652       307.033436256     -1567.788880955     -1563.605044987        14.322474318
       222          222.000000         3.788054704       295.132405695     -1567.590909994     -1563.558542235        15.045281133
       223          223.000000         3.864869211       301.117126608     -1567.714169675     -1563.603756588        15.720961311
       224          224.000000         3.858372608       300.610967635     -1567.748463355     -1563.643335584        15.059722122
       225          225.000000         3.868373698       301.390165927     -1567.747025012     -1563.630713306        15.026508755
       226          226.000000         3.934031840       306.505679531     -1567.844653331     -1563.661514555        15.035809113
       227          227.000000         3.831787168       298.539660468     -1567.720276570     -1563.638236050        15.036344742