#     Step Nr.          Time[fs]        Kin.[a.u.]          Temp[K]            Pot.[a.u.]        Cons Qty[a.u.]        UsedTime[s]
      4500         4500.000000         3.771425489       294.272437809     -1262.935377681     -1226.698011449        10.318366643
      4501         4501.000000         3.772826142       294.381726366     -1262.931292607     -1226.694198163        10.397570634
      4502         4502.000000         3.743777944       292.115187092     -1262.886449655     -1226.680084244        10.297813253
      4503         4503.000000         3.729268123       290.983031489     -1262.896783202     -1226.706617711        10.358964086
      4504         4504.000000         3.745844000       292.276394918     -1262.910297290     -1226.705267918        10.900923591
      4505         4505.000000         3.772309972       294.341451270     -1262.933439525     -1226.703684837        10.368413225
      4506         4506.000000         3.780148698       294.953082322     -1262.931303917     -1226.695473463        10.329815422
      4507         4507.000000         3.755273894       293.012179769     -1262.898039349     -1226.688855805        10.352427988
      4508         4508.000000         3.738624548       291.713083812     -1262.896941600     -1226.706186652        10.330879540
      4509         4509.000000         3.740269775       291.841455732     -1262.899504997     -1226.708900374        10.343184934
      4510         4510.000000         3.732171125       291.209543557     -1262.890290698     -1226.709598907        10.370325362
      4511         4511.000000         3.719548161       290.224613520     -1262.859979824     -1226.693741700        10.350991880
      4512         4512.000000         3.701860344       288.844488923     -1262.854986697     -1226.708283544        10.987101373
      4513         4513.000000         3.703772123       288.993659007     -1262.859971552     -1226.713226507        10.919901091
      4514         4514.000000         3.728065537       290.889197477     -1262.893305482     -1226.724169827        10.325447935
      4515         4515.000000         3.727789704       290.867675113     -1262.895889561     -1226.728961444        10.383945555
      4516         4516.000000         3.703671477       288.985805941     -1262.851613285     -1226.710751474        10.347473273
      4517         4517.000000         3.687851133       287.751394382     -1262.834593936     -1226.711516518        10.342127809
      4518         4518.000000         3.695313289       288.333642883     -1262.845918015     -1226.717369350        10.328169094
      4519         4519.000000         3.721802635       290.400523041     -1262.869558637     -1226.716548535        10.362670381
      4520         4520.000000         3.737848926       291.652564462     -1262.877277313     -1226.710283987        10.346138691
      4521         4521.000000         3.750813016       292.664111569     -1262.886078235     -1226.708212206        10.362002558
      4522         4522.000000         3.779436737       294.897530238     -1262.901021837     -1226.696652493        10.341871678
      4523         4523.000000         3.806149602       296.981850850     -1262.926330905     -1226.697396970        10.383191911
      4524         4524.000000         3.825633255       298.502098866     -1262.944376163     -1226.698127114        10.364456611
      4525         4525.000000         3.832851822       299.065340898     -1262.947245956     -1226.695957912        10.355616246
      4526         4526.000000         3.841488762       299.739254064     -1262.948248192     -1226.690508961        10.384146745
      4527         4527.000000         3.873147878       302.209515072     -1262.993667395     -1226.706465675        10.395382871
      4528         4528.000000         3.910789751       305.146591732     -1263.009719107     -1226.687085283        10.408530364
      4529         4529.000000         3.924633362       306.226765010     -1263.018667497     -1226.684400927        10.387449164
      4530         4530.000000         3.920867072       305.932893285     -1263.022537938     -1226.694234860        10.389842384
      4531         4531.000000         3.902049496       304.464617197     -1263.008724467     -1226.701414098        10.409459996
      4532         4532.000000         3.893594294       303.804884421     -1263.002383478     -1226.705683347        10.409992419
      4533         4533.000000         3.890816016       303.588104117     -1263.003547640     -1226.711767066        10.424579931
      4534         4534.000000         3.871949032       302.115972893     -1262.990446418     -1226.719658660        10.412660287
      4535         4535.000000         3.860003439       301.183895969     -1262.979252522     -1226.722521512        10.417431371
      4536         4536.000000         3.861402310       301.293045392     -1262.974246215     -1226.718220624        10.389533858
      4537         4537.000000         3.870701608       302.018640297     -1262.988418707     -1226.725196892        10.370322538
      4538         4538.000000         3.875015201       302.355216350     -1262.989116497     -1226.723682185        10.374554688
      4539         4539.000000         3.859322545       301.130767913     -1262.965053893     -1226.717404093        10.400235908
      4540         4540.000000         3.842647407       299.829659508     -1262.943820403     -1226.714925382        10.362435482
      4541         4541.000000         3.841172230       299.714556110     -1262.961135633     -1226.735790006        10.391839490
      4542         4542.000000         3.851844201       300.547256312     -1262.960134816     -1226.726193771        10.380095023
      4543         4543.000000         3.866987162       301.728813786     -1262.962508187     -1226.715505601        10.408407234
      4544         4544.000000         3.861506104       301.301144163     -1262.951985913     -1226.712543902        10.391873704
      4545         4545.000000         3.854651130       300.766272122     -1262.927457442     -1226.696942719        10.425137258
      4546         4546.000000         3.867854515       301.796490645     -1262.943312080     -1226.701664943        10.437222235
      4547         4547.000000         3.867005938       301.730278886     -1262.941858593     -1226.703129474        10.978251635
      4548         4548.000000         3.845298997       300.036554704     -1262.919547285     -1226.704584032        10.379487603
      4549         4549.000000         3.814439093       297.628653714     -1262.887301714     -1226.705242832        10.412064531
      4550         4550.000000         3.796932393       296.262661096     -1262.857884291     -1226.695368800        10.394440901
      4551         4551.000000         3.812966769       297.513772929     -1262.873645465     -1226.697139996        10.408902486
      4552         4552.000000         3.824330638       298.400459788     -1262.882558963     -1226.696747265        10.390378415
      4553         4553.000000         3.801943986       296.653699920     -1262.846496614     -1226.685130568        10.392235948
      4554         4554.000000         3.770272831       294.182499561     -1262.816028844     -1226.688386456        10.406404363
      4555         4555.000000         3.751163070       292.691425171     -1262.796342778     -1226.689862594        10.391725911
      4556         4556.000000         3.747605745       292.413858333     -1262.790324640     -1226.689465350        10.403720547
      4557         4557.000000         3.744004021       292.132827158     -1262.774291059     -1226.679113434        11.025624752
      4558         4558.000000         3.735151385       291.442083860     -1262.755096415     -1226.670867029        10.394165574
      4559         4559.000000         3.734546454       291.394883029     -1262.779206914     -1226.697695885        10.389966827
      4560         4560.000000         3.744182835       292.146779458     -1262.780279336     -1226.691268458        10.411420925
      4561         4561.000000         3.760344336       293.407810382     -1262.791701095     -1226.688691424        10.421625329
      4562         4562.000000         3.763481817       293.652618149     -1262.799419600     -1226.695456855        10.387885874
      4563         4563.000000         3.755693893       293.044950986     -1262.783650859     -1226.689674545        10.393207016
      4564         4564.000000         3.767033359       293.929733783     -1262.781327027     -1226.678227032        10.398808274
      4565         4565.000000         3.791226040       295.817412396     -1262.801846092     -1226.676793886        10.387576880
      4566         4566.000000         3.819909848       298.055519457     -1262.834836062     -1226.683365908        10.406208719
      4567         4567.000000         3.848873707       300.315478010     -1262.868376095     -1226.690229262        10.371394635
      4568         4568.000000         3.857677218       301.002388278     -1262.867457589     -1226.682804575        10.384174930
      4569         4569.000000         3.867011055       301.730678079     -1262.870801547     -1226.679114031        10.395031233
      4570         4570.000000         3.888863291       303.435739201     -1262.892165882     -1226.680929144        10.425475650
      4571         4571.000000         3.898359785       304.176720633     -1262.898293091     -1226.679862777        10.380671235
      4572         4572.000000         3.912038152       305.244000508     -1262.912726164     -1226.682915476        10.378561601
      4573         4573.000000         3.936227540       307.131422153     -1262.942547576     -1226.690841855        10.362860047
      4574         4574.000000         3.945493270       307.854397850     -1262.941660952     -1226.682974518        10.962403494
      4575         4575.000000         3.950916729       308.277573265     -1262.950298980     -1226.688457039        10.384400032
      4576         4576.000000         3.953633268       308.489536251     -1262.950177772     -1226.687867114        10.427397201
      4577         4577.000000         3.945704425       307.870873653     -1262.926138221     -1226.673979968        10.381530045
      4578         4578.000000         3.932393820       306.832289108     -1262.918607058     -1226.681955786        10.967306122
      4579         4579.000000         3.913340702       305.345634343     -1262.919590717     -1226.704161540        10.943579851
      4580         4580.000000         3.908871270       304.996898697     -1262.919809981     -1226.710997754        10.358572228
      4581         4581.000000         3.919961878       305.862263865     -1262.942260053     -1226.724492490        10.365855934
      4582         4582.000000         3.936225934       307.131296857     -1262.961598207     -1226.729693223        10.372483497
      4583         4583.000000         3.947019105       307.973453991     -1262.970818571     -1226.730235183        10.939374843
      4584         4584.000000         3.933654099       306.930624645     -1262.938470429     -1226.713345237        10.964939086
      4585         4585.000000         3.921029808       305.945591040     -1262.922003996     -1226.711570658        10.944710014
      4586         4586.000000         3.921076545       305.949237789     -1262.893365129     -1226.684932894        10.323889072
      4587         4587.000000         3.915396294       305.506025730     -1262.891861096     -1226.691139565        10.947828331
      4588         4588.000000         3.906097200       304.780446779     -1262.866258001     -1226.676847363        10.939202968
      4589         4589.000000         3.900118702       304.313963421     -1262.849664368     -1226.668227078        10.340250419
      4590         4590.000000         3.917356991       305.659012722     -1262.866387206     -1226.669697026        10.336872559
      4591         4591.000000         3.951614403       308.332010595     -1262.889459182     -1226.660494297        10.317532463
      4592         4592.000000         3.953015425       308.441327928     -1262.866447242     -1226.638051471        10.367129861
      4593         4593.000000         3.931215685       306.740362961     -1262.831659811     -1226.627006811        10.382467419
      4594         4594.000000         3.921408643       305.975150375     -1262.801175701     -1226.608246595        10.360084357
      4595         4595.000000         3.925073109       306.261077085     -1262.799979777     -1226.605285165        10.345293794
      4596         4596.000000         3.931391637       306.754091873     -1262.795924634     -1226.596795998        10.370164794
      4597         4597.000000         3.924555158       306.220663020     -1262.802352729     -1226.611927218        10.322149530
      4598         4598.000000         3.914854989       305.463789378     -1262.800611959     -1226.621732776        10.324869996
      4599         4599.000000         3.924898074       306.247419673     -1262.805118847     -1226.618027661        10.325845282
      4600         4600.000000         3.942099648       307.589604220     -1262.808736614     -1226.606264373        10.408028021
      4601         4601.000000         3.940230883       307.443790405     -1262.801617376     -1226.602818181        10.379341115
      4602         4602.000000         3.921048056       305.947014877     -1262.778866666     -1226.601030378        10.348259527
      4603         4603.000000         3.910610407       305.132598087     -1262.774661005     -1226.609019666        10.303712096
      4604         4604.000000         3.921056659       305.947686139     -1262.784842492     -1226.610497956        10.342030982
      4605         4605.000000         3.917383699       305.661096668     -1262.784343126     -1226.615400640        10.317607517
      4606         4606.000000         3.894999546       303.914531811     -1262.762256322     -1226.617406784        10.359055164
      4607         4607.000000         3.878380683       302.617814333     -1262.761668588     -1226.635127607        10.339021928
      4608         4608.000000         3.877484763       302.547908520     -1262.768095770     -1226.644129155        10.306118412
      4609         4609.000000         3.890947560       303.598368097     -1262.800791154     -1226.665035677        10.330060662
      4610         4610.000000         3.889399519       303.477579345     -1262.815038921     -1226.682498776        10.316203911
      4611         4611.000000         3.868094511       301.815216741     -1262.749948242     -1226.640366753        10.324059649
      4612         4612.000000         3.869048766       301.889674255     -1262.751851971     -1226.642960038        10.890351709
      4613         4613.000000         3.883849889       303.044559242     -1262.770331953     -1226.648280572        10.883725746
      4614         4614.000000         3.888551651       303.411422875     -1262.774128174     -1226.649012959        10.322651385
      4615         4615.000000         3.884267532       303.077146608     -1262.777221905     -1226.658019974        10.301812779
      4616         4616.000000         3.877489029       302.548241419     -1262.752809088     -1226.642004371        10.904257913
      4617         4617.000000         3.891875841       303.670798972     -1262.767292598     -1226.643713996        10.312259023
      4618         4618.000000         3.920611631       305.912962026     -1262.788239511     -1226.637536839        10.322863501
      4619         4619.000000         3.934092933       306.964865539     -1262.795829681     -1226.633250822        10.306443679
      4620         4620.000000         3.936375772       307.142988254     -1262.799318806     -1226.636047250        10.316480775
      4621         4621.000000         3.940678258       307.478697696     -1262.802028939     -1226.636027352        10.311313220
      4622         4622.000000         3.947666661       308.023980681     -1262.803177120     -1226.631741906        10.303132897
      4623         4623.000000         3.954394917       308.548965342     -1262.796058408     -1226.619431097        10.342043779
      4624         4624.000000         3.954331034       308.543980753     -1262.787719753     -1226.612671244        10.303321706
      4625         4625.000000         3.950429618       308.239565510     -1262.766535688     -1226.596880174        10.881257774
      4626         4626.000000         3.953477747       308.477401406     -1262.773285324     -1226.602051047        10.911264051
      4627         4627.000000         3.957886915       308.821434903     -1262.768258038     -1226.594062803        10.879621900
      4628         4628.000000         3.950991753       308.283427147     -1262.760126078     -1226.594250663        10.272808912
      4629         4629.000000         3.927777103       306.472061181     -1262.735733525     -1226.594470536        10.922580201
      4630         4630.000000         3.905936582       304.767914266     -1262.717951606     -1226.599901857        10.907711031
      4631         4631.000000         3.889082055       303.452808625     -1262.709887685     -1226.610045769        10.887234680
      4632         4632.000000         3.870601100       302.010797997     -1262.689547798     -1226.609525004        10.884078999
      4633         4633.000000         3.868514241       301.847966942     -1262.720032007     -1226.643424982        10.320665552
      4634         4634.000000         3.873333479       302.223996937     -1262.726416556     -1226.646314621        10.869346419
      4635         4635.000000         3.866155407       301.663914636     -1262.711546938     -1226.639941464        10.882719250
      4636         4636.000000         3.854763332       300.775026881     -1262.697435575     -1226.638533126        10.311694318
      4637         4637.000000         3.848063687       300.252274704     -1262.691016139     -1226.640119003        10.324451206
      4638         4638.000000         3.856380581       300.901215737     -1262.692040838     -1226.634131626        10.312044072
      4639         4639.000000         3.879089798       302.673144314     -1262.730032362     -1226.650721220        10.305239251
      4640         4640.000000         3.892018199       303.681906737     -1262.753159947     -1226.662226937        10.287103765
      4641         4641.000000         3.893353985       303.786133864     -1262.757360156     -1226.666390938        10.303146476
      4642         4642.000000         3.901342726       304.409470111     -1262.771351331     -1226.673684406        10.298443375
      4643         4643.000000         3.917530380       305.672541707     -1262.790152650     -1226.677581314        10.303541420
      4644         4644.000000         3.923554095       306.142553182     -1262.787655252     -1226.670332440        10.283050732
      4645         4645.000000         3.904796983       304.678994904     -1262.765895645     -1226.668584650        10.290500186
      4646         4646.000000         3.887191055       303.305259843     -1262.752895294     -1226.674426842        10.281358385
      4647         4647.000000         3.897591255       304.116754679     -1262.764738190     -1226.677095641        10.286225039
      4648         4648.000000         3.926370427       306.362302734     -1262.788606478     -1226.673405746        10.293757659
      4649         4649.000000         3.951544085       308.326523885     -1262.806361684     -1226.667200019        10.267109663
      4650         4650.000000         3.954200303       308.533780220     -1262.802539835     -1226.661917547        10.266060807
      4651         4651.000000         3.943608625       307.707344937     -1262.788661022     -1226.659802633        10.297766749
      4652         4652.000000         3.941510956       307.543670445     -1262.781869874     -1226.656258958        10.306285722
      4653         4653.000000         3.934854260       307.024269448     -1262.768249442     -1226.650424015        10.284839076
      4654         4654.000000         3.924125403       306.187130566     -1262.765535901     -1226.659547295        10.890286526
      4655         4655.000000         3.921311409       305.967563502     -1262.754690085     -1226.652605102        10.866387975
      4656         4656.000000         3.937712781       307.247310844     -1262.764698106     -1226.647287097        10.863533645
      4657         4657.000000         3.968271348       309.631699422     -1262.791647721     -1226.644740410        10.849790810
      4658         4658.000000         3.986083373       311.021515625     -1262.814289932     -1226.650614130        10.856402348
      4659         4659.000000         3.978204908       310.406783823     -1262.798500016     -1226.643718921        10.888407388
      4660         4660.000000         3.968724980       309.667094925     -1262.776333149     -1226.632018466        10.850619299
      4661         4661.000000         3.973685791       310.054171372     -1262.784838333     -1226.636522769        10.317742492
      4662         4662.000000         3.980187688       310.561493889     -1262.785538009     -1226.631655155        10.272960355
      4663         4663.000000         3.979530588       310.510222454     -1262.798500400     -1226.646182102        10.833069022
      4664         4664.000000         3.983624127       310.829628356     -1262.783607871     -1226.628075854        10.846662983
      4665         4665.000000         3.992533057       311.524764068     -1262.792834317     -1226.629245704        10.872795177
      4666         4666.000000         3.994896009       311.709137796     -1262.805703662     -1226.640575130        10.855545378
      4667         4667.000000         3.982274961       310.724357247     -1262.787042885     -1226.635326650        10.284523095
      4668         4668.000000         3.964561313       309.342217153     -1262.805846409     -1226.672603797        10.295506614
      4669         4669.000000         3.956505217       308.713625376     -1262.793607003     -1226.669153084        10.878477351
      4670         4670.000000         3.962485174       309.180222518     -1262.780741814     -1226.651016983        10.259152470
      4671         4671.000000         3.967425555       309.565704918     -1262.792983281     -1226.659003866        10.293755452
      4672         4672.000000         3.958545819       308.872847093     -1262.803561794     -1226.679122680        10.261771129
      4673         4673.000000         3.944893731       307.807617689     -1262.790370345     -1226.680218773        10.262556696
      4674         4674.000000         3.932685625       306.855057676     -1262.755396002     -1226.658065387        10.273598619
      4675         4675.000000         3.926890700       306.402898018     -1262.750475414     -1226.659533061        10.263597023
      4676         4676.000000         3.919351617       305.814647150     -1262.746594064     -1226.663766444        10.272977930
      4677         4677.000000         3.908792976       304.990789616     -1262.737737948     -1226.666028214        10.289018321
      4678         4678.000000         3.918263282       305.729727731     -1262.751932548     -1226.671298154        10.260961292
      4679         4679.000000         3.946012288       307.894895199     -1262.799652573     -1226.691801932        10.280794433
      4680         4680.000000         3.962620614       309.190790496     -1262.822418148     -1226.698474443        10.270574435
      4681         4681.000000         3.963980845       309.296925016     -1262.823081526     -1226.698270161        10.290342455
      4682         4682.000000         3.964768673       309.358396789     -1262.825036352     -1226.699905326        10.279601134
      4683         4683.000000         3.954178311       308.532064232     -1262.813097949     -1226.699000489        10.830826271
      4684         4684.000000         3.952471098       308.398855811     -1262.818824978     -1226.706854544        10.837996221
      4685         4685.000000         3.945813838       307.879410801     -1262.826094167     -1226.721178398        10.260316647
      4686         4686.000000         3.932003050       306.801798511     -1262.777004883     -1226.686275791        10.845038084
      4687         4687.000000         3.934103658       306.965702371     -1262.777672265     -1226.685199660        10.872152388
      4688         4688.000000         3.942314553       307.606372624     -1262.781914090     -1226.681569722        10.320622807
      4689         4689.000000         3.941930441       307.576401537     -1262.729176333     -1226.629535797        10.278283057
      4690         4690.000000         3.933626282       306.928454243     -1262.708727765     -1226.617691088        10.868480336
      4691         4691.000000         3.924214942       306.194116999     -1262.696645884     -1226.615301471        10.878384322
      4692         4692.000000         3.919282822       305.809279244     -1262.705988254     -1226.629840072        10.852093368
      4693         4693.000000         3.914675077       305.449751451     -1262.695725593     -1226.624433781        10.843749014
      4694         4694.000000         3.917930293       305.703745679     -1262.715467015     -1226.641154149        10.871500152
      4695         4695.000000         3.925567543       306.299656187     -1262.705056795     -1226.623326152        10.851152854
      4696         4696.000000         3.928518224       306.529888560     -1262.688759291     -1226.604281376        10.461304960
      4697         4697.000000         3.933811259       306.942887353     -1262.690833747     -1226.601249257        10.317222501
      4698         4698.000000         3.941178971       307.517766747     -1262.710105356     -1226.613321642        10.277750598
      4699         4699.000000         3.941151743       307.515642177     -1262.705223946     -1226.608616557        10.302184612
      4700         4700.000000         3.938360022       307.297813014     -1262.693754673     -1226.600068387        10.849907032
      4701         4701.000000         3.935267731       307.056531284     -1262.685936858     -1226.595453012        10.320051381
      4702         4702.000000         3.926594424       306.379780515     -1262.667878182     -1226.586159284        10.866194133
      4703         4703.000000         3.922889682       306.090711129     -1262.681426596     -1226.603487119        10.887050367
      4704         4704.000000         3.923374402       306.128532374     -1262.678398005     -1226.600032421        10.306861501
      4705         4705.000000         3.922261427       306.041690378     -1262.686769211     -1226.609559229        10.303198340
      4706         4706.000000         3.920391824       305.895811169     -1262.722497796     -1226.647184254        10.883582648
      4707         4707.000000         3.918847899       305.775343563     -1262.725699369     -1226.651941162        10.320531407
      4708         4708.000000         3.936755422       307.172611099     -1262.760843074     -1226.669173149        10.876309616
      4709         4709.000000         3.956170081       308.687475785     -1262.781767621     -1226.670659908        10.870683211
      4710         4710.000000         3.957913800       308.823532668     -1262.787911329     -1226.675014254        10.311145072
      4711         4711.000000         3.949024967       308.129965071     -1262.785591761     -1226.681514937        10.274561593
      4712         4712.000000         3.946609407       307.941486499     -1262.791741518     -1226.689990199        10.290385033
      4713         4713.000000         3.958819359       308.894190543     -1262.822309694     -1226.708236936        10.840102457
      4714         4714.000000         3.967409858       309.564480147     -1262.835200347     -1226.712401898        10.869807895
      4715         4715.000000         3.965852419       309.442958078     -1262.813265241     -1226.691863889        10.823137267
      4716         4716.000000         3.967742886       309.590465237     -1262.812249376     -1226.688772134        10.859504170
      4717         4717.000000         3.977841446       310.378424008     -1262.814624201     -1226.680837066        10.814618025
      4718         4718.000000         3.986657192       311.066288859     -1262.819232993     -1226.676390743        10.815492319
      4719         4719.000000         3.988294084       311.194010366     -1262.818671011     -1226.673922948        10.317020868
      4720         4720.000000         3.984995416       310.936625780     -1262.839609476     -1226.697861582        10.274113547
      4721         4721.000000         3.981246929       310.644143107     -1262.824379263     -1226.686052575        10.281590351
      4722         4722.000000         3.979820947       310.532878265     -1262.818634714     -1226.681378615        10.302777107
      4723         4723.000000         3.971812132       309.907975648     -1262.808250347     -1226.678620331        10.293831556
      4724         4724.000000         3.957324416       308.777544898     -1262.791623011     -1226.676073025        10.252144233
      4725         4725.000000         3.938947773       307.343673347     -1262.769916150     -1226.672313793        10.292421385
      4726         4726.000000         3.922000168       306.021305167     -1262.734718895     -1226.653617745        10.857434273
      4727         4727.000000         3.911286914       305.185383803     -1262.691994324     -1226.621145695        10.278875543