#     Step Nr.          Time[fs]        Kin.[a.u.]          Temp[K]            Pot.[a.u.]        Cons Qty[a.u.]        UsedTime[s]
         0            0.000000         3.844830508       300.000000000     -1263.068078046     -1259.222772515         0.000000000
         1            1.000000         3.784827780       295.318176331     -1263.007443241     -1259.221293860        45.486431791
         2            2.000000         3.764275461       293.714543717     -1262.953474339     -1259.187050399        13.070644196
         3            3.000000         3.766516632       293.889415157     -1262.953653529     -1259.184178720        13.053389435
         4            4.000000         3.808963400       297.201402640     -1263.001636755     -1259.188915068        13.700429393
         5            5.000000         3.843595883       299.903666076     -1263.021507383     -1259.173352215        13.728265992
         6            6.000000         3.824862512       298.441960193     -1262.992144447     -1259.161921485        13.113024952
         7            7.000000         3.869270879       301.907005085     -1263.054528924     -1259.179096076        13.094397470
         8            8.000000         3.901879031       304.451316356     -1263.113197093     -1259.204341804        13.078263301
         9            9.000000         3.851219209       300.498490168     -1263.042062065     -1259.183044709        13.114001714
        10           10.000000         3.812030236       297.440698198     -1263.007726656     -1259.187084223        13.068069132
        11           11.000000         3.778520935       294.826073103     -1262.965610473     -1259.177677221        13.107741497
        12           12.000000         3.821067087       298.145815154     -1262.946012295     -1259.114742943        12.455400627
        13           13.000000         3.885119662       303.143635592     -1263.026485308     -1259.130366422        13.109875503
        14           14.000000         3.850249548       300.422830608     -1263.043678101     -1259.181623595        13.701844400
        15           15.000000         3.843252174       299.876847545     -1263.036410454     -1259.180550003        13.740920167
        16           16.000000         3.863106317       301.426003738     -1263.097745038     -1259.221225256        14.353157768
        17           17.000000         3.850645930       300.453759014     -1263.082813458     -1259.217945070        13.750709108
        18           18.000000         3.807381501       297.077972052     -1263.035171797     -1259.212764106        13.681991765
        19           19.000000         3.719156186       290.194028952     -1262.931766155     -1259.196802043        13.703763357
        20           20.000000         3.737667939       291.638442687     -1262.821562092     -1259.067333380        12.463374976
        21           21.000000         3.845283308       300.035330513     -1262.907809718     -1259.045218810        13.123555480
        22           22.000000         3.860808495       301.246711913     -1262.936589683     -1259.057716585        12.466846803
        23           23.000000         3.825045362       298.456227425     -1262.901130580     -1259.057263447        12.471935966
        24           24.000000         3.780864508       295.008934677     -1262.852080393     -1259.051648676        12.484458445
        25           25.000000         3.784569103       295.297992616     -1262.848880238     -1259.044013606        12.464719549
        26           26.000000         3.847053293       300.173436851     -1262.928385007     -1259.060307704        12.469788801
        27           27.000000         3.804662420       296.865810767     -1262.899632963     -1259.073219984        12.490163394
        28           28.000000         3.759104982       293.311107513     -1262.927186531     -1259.145620440        13.083881767
        29           29.000000         3.810863665       297.349674296     -1262.990048830     -1259.156027109        13.755465563
        30           30.000000         3.854440953       300.749872731     -1263.028606558     -1259.150308423        14.334680960
        31           31.000000         3.878116915       302.597233375     -1263.061406434     -1259.158725257        13.779860622
        32           32.000000         3.812247512       297.457651550     -1262.966329861     -1259.128810042        13.093924336
        33           33.000000         3.760822362       293.445109280     -1262.922243446     -1259.135457150        13.784750970
        34           34.000000         3.851463187       300.517526999     -1263.028047266     -1259.149937648        13.118428122
        35           35.000000         3.895854283       303.981224254     -1263.069676955     -1259.146480959        13.130280538
        36           36.000000         3.871433852       302.075775000     -1263.038043421     -1259.138561725        12.473549879
        37           37.000000         3.839118571       299.554315522     -1262.938036159     -1259.070163096        12.517813346
        38           38.000000         3.822617621       298.266798430     -1262.893365737     -1259.041291636        12.488957469
        39           39.000000         3.891286094       303.624782837     -1262.942805862     -1259.021358252        12.575217693
        40           40.000000         3.878659514       302.639570618     -1262.954366470     -1259.044827342        12.502232851
        41           41.000000         3.782938505       295.170762194     -1262.841018685     -1259.026487164        12.530504079
        42           42.000000         3.802021401       296.659740347     -1262.894017029     -1259.059705084        12.520004319
        43           43.000000         3.858409819       301.059550789     -1262.931743765     -1259.040345857        12.495608039
        44           44.000000         3.906816679       304.836585393     -1262.994337198     -1259.053822074        12.501868078
        45           45.000000         3.893727597       303.815285647     -1262.950766855     -1259.022615480        12.792133860
        46           46.000000         3.806987822       297.047254548     -1262.854660332     -1259.012523959        12.480994285
        47           47.000000         3.834126710       299.164816356     -1262.904978489     -1259.034987962        12.517888812
        48           48.000000         3.871130046       302.052069967     -1262.949805919     -1259.042091854        12.531682612
        49           49.000000         3.827497509       298.647560730     -1262.850570538     -1258.985765337        12.493533153
        50           50.000000         3.800924350       296.574140958     -1262.833239254     -1258.994292281        12.497381487
        51           51.000000         3.792834282       295.942898436     -1262.818244254     -1258.986683002        12.517267667
        52           52.000000         3.880413950       302.776463738     -1262.916012717     -1258.996167165        11.856509150
        53           53.000000         3.953525740       308.481146142     -1262.994820616     -1259.001136013        11.875176332
        54           54.000000         3.881630143       302.871359482     -1262.900842230     -1258.978306464        11.882095180
        55           55.000000         3.868105953       301.816109583     -1262.892389516     -1258.982629366        12.484824784
        56           56.000000         3.904366768       304.645426612     -1262.852890236     -1258.906111450        11.850551017
        57           57.000000         3.917365096       305.659645148     -1262.860398110     -1258.899845739        12.514285015
        58           58.000000         3.926908821       306.404311948     -1262.921682697     -1258.950793236        12.507893521
        59           59.000000         3.856938065       300.944714443     -1262.837052165     -1258.935330431        12.497092785
        60           60.000000         3.876455740       302.467617119     -1262.847725387     -1258.925682214        11.876655283
        61           61.000000         3.974126630       310.088568657     -1262.967319033     -1258.946779248        11.872903632
        62           62.000000         3.948671441       308.102380546     -1262.927332037     -1258.931389398        11.899312714
        63           63.000000         3.904355489       304.644546569     -1262.884795641     -1258.932296378        11.886085502
        64           64.000000         3.871235920       302.060331040     -1262.849589779     -1258.929332384        11.897212553
        65           65.000000         3.892555778       303.723852324     -1262.869868751     -1258.927406993        11.872741230
        66           66.000000         3.959287395       308.930709914     -1262.958525246     -1258.948424949        11.874413205
        67           67.000000         3.889045754       303.449976215     -1262.873098105     -1258.932311661        11.889707607
        68           68.000000         3.835701891       299.287722813     -1262.813916407     -1258.925549831        11.882744878
        69           69.000000         3.887095521       303.297805690     -1262.888718421     -1258.948032154        11.904506212
        70           70.000000         3.909180351       305.021015327     -1262.904951478     -1258.941236180        11.864942788
        71           71.000000         3.916467023       305.589571357     -1262.921897479     -1258.949933515        11.873276221
        72           72.000000         3.850435403       300.437332226     -1262.848432580     -1258.941531348        12.465163757
        73           73.000000         3.818332039       297.932407977     -1262.805133307     -1258.929375306        11.890156360
        74           74.000000         3.916578493       305.598269008     -1262.909195468     -1258.934223132        12.674749945
        75           75.000000         3.929729389       306.624391924     -1262.942695866     -1258.953576839        12.496943660
        76           76.000000         3.896671668       304.045002199     -1262.986361559     -1259.029289383        12.502054946
        77           77.000000         3.883287184       303.000653133     -1262.996808952     -1259.052103882        12.472712542
        78           78.000000         3.876181456       302.446215579     -1263.020417685     -1259.081794228        12.478516024
        79           79.000000         3.927528090       306.452631481     -1263.090124145     -1259.099114746        12.488410000
        80           80.000000         3.881435066       302.856138242     -1263.100096468     -1259.154124336        13.135754391
        81           81.000000         3.808906188       297.196938604     -1263.012542577     -1259.138051502        12.504260830
        82           82.000000         3.866264371       301.672416721     -1263.108899772     -1259.176007301        13.121610673
        83           83.000000         3.906184950       304.787293644     -1263.145714850     -1259.171840097        13.182097329
        84           84.000000         3.912078420       305.247142515     -1263.151122680     -1259.170273557        13.117894839
        85           85.000000         3.867569714       301.774268517     -1263.100828152     -1259.163398561        12.483524198
        86           86.000000         3.803571049       296.780654505     -1263.016920448     -1259.142410229        13.134437854
        87           87.000000         3.877649370       302.560752276     -1263.118542742     -1259.168877097        13.118041645
        88           88.000000         3.905218491       304.711883867     -1263.152825130     -1259.174492379        13.141593528
        89           89.000000         3.828367934       298.715477215     -1263.046821775     -1259.144237956        12.491991873
        90           90.000000         3.808907835       297.197067119     -1263.036221087     -1259.152010261        13.100230546
        91           91.000000         3.821818509       298.204446272     -1263.077855407     -1259.179653103        13.726201658
        92           92.000000         3.896150872       304.004366155     -1263.123351720     -1259.149726047        13.136504052
        93           93.000000         3.902296698       304.483905531     -1263.157667037     -1259.176783622        13.767054392
        94           94.000000         3.803786194       296.797441594     -1263.033629961     -1259.150148621        13.144709637
        95           95.000000         3.819672654       298.037011966     -1263.062590845     -1259.162131076        13.132552885
        96           96.000000         3.864584213       301.541319258     -1263.112603826     -1259.166135459        13.117315939
        97           97.000000         3.864093073       301.502997202     -1263.107916891     -1259.160832857        12.517080314
        98           98.000000         3.842150045       299.790851878     -1263.090891633     -1259.164643181        12.531012178
        99           99.000000         3.786877075       295.478076368     -1263.019032153     -1259.146961212        13.179140097
       100          100.000000         3.844324623       299.960527354     -1263.082785583     -1259.152179662        13.720620329
       101          101.000000         3.907122634       304.860458160     -1263.134321826     -1259.139812946        13.168839232
       102          102.000000         3.832594655       299.045274922     -1263.042491784     -1259.121398298        13.098590999
       103          103.000000         3.796548706       296.232723189     -1263.009568921     -1259.123425965        13.169775201
       104          104.000000         3.818033802       297.909137524     -1263.028252153     -1259.119538812        13.126365127
       105          105.000000         3.885243613       303.153307155     -1263.098826055     -1259.121809148        13.116457515
       106          106.000000         3.927652566       306.462343988     -1263.156596126     -1259.136053381        12.532269081
       107          107.000000         3.835441581       299.267411617     -1263.040261044     -1259.110806338        12.500785693
       108          108.000000         3.838198242       299.482505170     -1263.023286223     -1259.089964515        12.517716405
       109          109.000000         3.935181004       307.049764263     -1263.085333715     -1259.053903668        12.527340161
       110          110.000000         3.943175903       307.673580986     -1263.084803859     -1259.044222278        12.509018389
       111          111.000000         3.898252950       304.168384631     -1263.066184916     -1259.069356841        12.501547643
       112          112.000000         3.822607875       298.266037981     -1262.978578996     -1259.056235106        12.560036976
       113          113.000000         3.862781553       301.400663434     -1263.018558866     -1259.054887928        12.489141088
       114          114.000000         3.987299272       311.116388394     -1263.170826350     -1259.081454490        12.530934675
       115          115.000000         3.934690980       307.011529248     -1263.106144590     -1259.068163185        12.494599248
       116          116.000000         3.822638170       298.268401845     -1262.985287955     -1259.058151199        12.506666057
       117          117.000000         3.803522705       296.776882397     -1262.951680682     -1259.042474857        12.512801967
       118          118.000000         3.853906897       300.708201972     -1263.003660434     -1259.042888782        12.516254587
       119          119.000000         3.912972383       305.316895620     -1263.081472916     -1259.060436570        12.525829970
       120          120.000000         3.823831804       298.361537306     -1262.979722198     -1259.046623426        12.523407171
       121          121.000000         3.750070468       292.606172852     -1262.894223845     -1259.033714072        12.512823437
       122          122.000000         3.847545318       300.211828070     -1263.013518072     -1259.054373740        12.494038045
       123          123.000000         3.928630808       306.538673153     -1263.075730667     -1259.034315583        12.502184675
       124          124.000000         3.929414441       306.599817573     -1263.122904353     -1259.079494888        12.514842924
       125          125.000000         3.845180193       300.027284760     -1262.990678120     -1259.030292272        12.484097062
       126          126.000000         3.803374601       296.765326258     -1262.937637719     -1259.017867616        12.535409429
       127          127.000000         3.916022093       305.554854846     -1263.065559577     -1259.031948029        12.475463650
       128          128.000000         3.947430726       308.005571420     -1263.101610375     -1259.035364122        12.501411760
       129          129.000000         3.870168260       301.977024859     -1263.021294949     -1259.031077009        12.518679510
       130          130.000000         3.849703578       300.380230229     -1263.008452932     -1259.037477387        12.511212047
       131          131.000000         3.891062993       303.607375026     -1263.052369897     -1259.038809949        12.543985113
       132          132.000000         3.975475958       310.193852422     -1263.143054670     -1259.043829647        12.491155430
       133          133.000000         3.956786392       308.735564528     -1263.127492682     -1259.045674036        12.505363769
       134          134.000000         3.845896932       300.083209672     -1262.996669169     -1259.024461205        12.522937109
       135          135.000000         3.869885757       301.954982047     -1263.035203797     -1259.037742842        12.528625843
       136          136.000000         3.935146458       307.047068710     -1263.110303332     -1259.046300979        12.534270645
       137          137.000000         3.932049472       306.805420687     -1263.104464794     -1259.042256328        12.530050845
       138          138.000000         3.882740253       302.957977827     -1263.044971692     -1259.030766234        12.519952365
       139          139.000000         3.819984294       298.061328248     -1262.928103179     -1258.975363859        11.871093147
       140          140.000000         3.870252229       301.983576733     -1263.012861091     -1259.008573409        12.481619780
       141          141.000000         3.916341125       305.579747890     -1263.081315425     -1259.029642745        12.520145543
       142          142.000000         3.855501705       300.832639857     -1263.006371584     -1259.014238605        11.896169544
       143          143.000000         3.829448166       298.799764353     -1262.992206734     -1259.024844953        12.501553769
       144          144.000000         3.840239359       299.641767104     -1263.005770251     -1259.026345698        12.520946966
       145          145.000000         3.873251328       302.217586915     -1263.062605017     -1259.048896319        12.529278559
       146          146.000000         3.874774621       302.336444705     -1263.108332187     -1259.091823936        12.498796877
       147          147.000000         3.788499736       295.604687448     -1263.005719208     -1259.074226457        12.499474717
       148          148.000000         3.788260248       295.586001003     -1263.009910013     -1259.077427422        12.552708180
       149          149.000000         3.853940300       300.710808318     -1263.081002437     -1259.081616513        12.538983112
       150          150.000000         3.842053808       299.783342847     -1263.079554828     -1259.090830845        12.501942146
       151          151.000000         3.804700450       296.868778121     -1263.041268502     -1259.088689730        12.485300848
       152          152.000000         3.778263663       294.805998997     -1263.009184595     -1259.081859675        12.511247900
       153          153.000000         3.831311960       298.945190338     -1263.086498593     -1259.104957167        12.501559689
       154          154.000000         3.908207310       304.945091964     -1263.161842218     -1259.102227265        12.514988445
       155          155.000000         3.861300713       301.285118156     -1263.104807782     -1259.090915106        13.141834441
       156          156.000000         3.805841444       296.957806228     -1263.046080029     -1259.086483037        12.500698705
       157          157.000000         3.817126209       297.838320929     -1263.094679414     -1259.122655195        12.493825635
       158          158.000000         3.848656453       300.298526364     -1263.126353892     -1259.121664055        13.106745901
       159          159.000000         3.873740017       302.255717795     -1263.161802909     -1259.130893809        12.524449242
       160          160.000000         3.827802286       298.671341498     -1263.108632350     -1259.122533146        12.517589169
       161          161.000000         3.815077033       297.678430149     -1263.089473852     -1259.114992130        12.501906463
       162          162.000000         3.902105298       304.468971244     -1263.271216105     -1259.208600172        13.764546344
       163          163.000000         3.927127890       306.421405173     -1263.329598065     -1259.240836826        14.406883834
       164          164.000000         3.889233047       303.464590044     -1263.277738207     -1259.225745456        14.365534308
       165          165.000000         3.855405435       300.825128196     -1263.241589264     -1259.222308842        14.399203282
       166          166.000000         3.851569755       300.525842159     -1263.234653844     -1259.218106308        14.389503330
       167          167.000000         3.897559649       304.114288604     -1263.285942490     -1259.222303765        14.966652981
       168          168.000000         3.879423610       302.699190644     -1263.264154716     -1259.217548087        14.348887458
       169          169.000000         3.835288312       299.255452542     -1263.198526453     -1259.194964205        14.390227754
       170          170.000000         3.869657103       301.937140926     -1263.144800544     -1259.105790560        13.118456644
       171          171.000000         3.908611306       304.976614477     -1263.187018120     -1259.107970439        13.753769088
       172          172.000000         3.910740827       305.142774332     -1263.194792284     -1259.112524955        13.155432740
       173          173.000000         3.857283813       300.971692089     -1263.106630842     -1259.076736943        13.161290094
       174          174.000000         3.804358683       296.842111085     -1263.041700088     -1259.063671406        13.130485427
       175          175.000000         3.848975819       300.323445531     -1263.096537938     -1259.072850440        12.495845315
       176          176.000000         3.868322603       301.833014064     -1263.142657986     -1259.098584676        12.542772522
       177          177.000000         3.816706685       297.805586785     -1263.080345243     -1259.086861864        12.549279117
       178          178.000000         3.809880882       297.272990878     -1263.076973435     -1259.089313793        12.547951738
       179          179.000000         3.846611786       300.138987471     -1263.068843003     -1259.043464050        12.539723288
       180          180.000000         3.896264478       304.013230478     -1263.125374590     -1259.049354555        12.490898507
       181          181.000000         3.872795005       302.181981500     -1263.085606769     -1259.032067944        12.537406947
       182          182.000000         3.786282755       295.431703408     -1262.957196576     -1258.989203701        12.516457229
       183          183.000000         3.794014369       296.034976904     -1262.969404726     -1258.992745048        12.565273690
       184          184.000000         3.863896514       301.487660276     -1263.074151660     -1259.026685622        12.530149728
       185          185.000000         3.884154990       303.068365290     -1263.094564906     -1259.025914759        12.507395629
       186          186.000000         3.838329964       299.492783039     -1263.040147994     -1259.016406188        12.567955210
       187          187.000000         3.775055080       294.555643371     -1262.925463441     -1258.964106520        12.499884214
       188          188.000000         3.806188119       296.984856222     -1262.942523251     -1258.949170462        12.538129638
       189          189.000000         3.866345517       301.678748302     -1263.015470497     -1258.961106011        12.522218473
       190          190.000000         3.824514424       298.414800019     -1262.977762042     -1258.964382453        12.544839838
       191          191.000000         3.784041357       295.256814259     -1262.958582123     -1258.984854240        12.561048097
       192          192.000000         3.807890396       297.117679547     -1262.986185930     -1258.987811565        12.496736113
       193          193.000000         3.857505467       300.988987051     -1263.021962160     -1258.973185915        11.900361729
       194          194.000000         3.873953728       302.272393034     -1263.063618389     -1258.997610226        12.556736828
       195          195.000000         3.786278545       295.431374945     -1262.963016276     -1258.983915194        12.529147906
       196          196.000000         3.734191728       291.367204898     -1262.905148133     -1258.977401653        12.527911508
       197          197.000000         3.787304968       295.511463485     -1263.013480244     -1259.031918397        12.509858562
       198          198.000000         3.820880316       298.131242031     -1263.047815391     -1259.031990665        12.533266769
       199          199.000000         3.805071603       296.897738022     -1263.029954173     -1259.029265666        12.560569549
       200          200.000000         3.777526841       294.748507050     -1262.995732789     -1259.021938975        12.522046489
       201          201.000000         3.810944942       297.356016083     -1263.028165394     -1259.020324992        12.604087561
       202          202.000000         3.887610120       303.337958230     -1263.118161539     -1259.033034252        12.546492292
       203          203.000000         3.860399531       301.214801762     -1263.086539581     -1259.028001357        12.497270265
       204          204.000000         3.773976425       294.471479291     -1262.988489057     -1259.015769938        12.517028910
       205          205.000000         3.767784823       293.988368140     -1262.987085269     -1259.019982832        12.522719376
       206          206.000000         3.828200075       298.702379744     -1263.048302550     -1259.020228975        12.552738999
       207          207.000000         3.901483422       304.420448190     -1263.129904705     -1259.027994588        12.546671842
       208          208.000000         3.894266590       303.857341538     -1263.122084357     -1259.026833235        12.534403078
       209          209.000000         3.846163190       300.103984941     -1263.079638268     -1259.031937303        12.544998428
       210          210.000000         3.897670296       304.122921973     -1263.141890339     -1259.042135591        12.528025551
       211          211.000000         3.944510068       307.777681681     -1263.195546152     -1259.048397041        12.519409015
       212          212.000000         3.910855914       305.151754210     -1263.156180771     -1259.042121889        12.540017977
       213          213.000000         3.863824973       301.482078216     -1263.090590235     -1259.023001115        12.511876164
       214          214.000000         3.855659195       300.844928280     -1263.077480676     -1259.017505307        12.512240640
       215          215.000000         3.939244517       307.366827361     -1263.206575622     -1259.062462995        12.541247774
       216          216.000000         3.990764063       311.386735086     -1263.284176372     -1259.087974296        12.544239408
       217          217.000000         3.925341406       306.282011422     -1263.115689854     -1258.984325113        12.548438774
       218          218.000000         3.875016067       302.355283955     -1262.997244655     -1258.915622449        12.579491374
       219          219.000000         3.879708838       302.721446061     -1262.981540213     -1258.894649090        12.533139348
       220          220.000000         3.915116323       305.484180502     -1263.021601184     -1258.898726372        12.582286092
       221          221.000000         3.928684382       306.542853354     -1263.070840171     -1258.933814596        12.531103493
       222          222.000000         3.876123175       302.441668081     -1262.993513645     -1258.908465123        12.523371803
       223          223.000000         3.882063343       302.905160714     -1263.004597839     -1258.913031691        12.552867288
       224          224.000000         3.930111184       306.654182187     -1263.012917955     -1258.872724917        12.540143671
       225          225.000000         3.911464807       305.199264188     -1262.989230997     -1258.867098603        12.539720801
       226          226.000000         3.862024020       301.341555479     -1263.001659447     -1258.928385705        12.516237740
       227          227.000000         3.803453549       296.771486336     -1262.938471914     -1258.923202425        12.551759484