#     Step Nr.          Time[fs]        Kin.[a.u.]          Temp[K]            Pot.[a.u.]    
         0            0.000000         3.844830508       300.000000000     -1262.965726312   
         1            1.000000         4.291702631       334.868022506     -1263.618761789   
         2            2.000000         3.966394255       309.485235792     -1263.231864458   
         3            3.000000         3.812006080       297.438813369     -1262.978156642   
         4            4.000000         4.389747860       342.518182609     -1263.804967963   
         5            5.000000         3.837142092       299.400097094     -1263.028424186   
         6            6.000000         3.924468016       306.213863597     -1263.173819111   
         7            7.000000         4.086638701       318.867530748     -1263.419409112   
         8            8.000000         3.735960440       291.505211864     -1262.874108525   
         9            9.000000         4.281357950       334.060859705     -1263.661328873   
        10           10.000000         3.901501267       304.421840597     -1263.168018174   
        11           11.000000         3.607325069       281.468199508     -1262.794705871   
        12           12.000000         4.107669045       320.508462141     -1263.519690666   
        13           13.000000         3.658847757       285.488352373     -1262.839891133   
        14           14.000000         3.830194131       298.857969669     -1263.129788589   
        15           15.000000         3.873698086       302.252446067     -1263.213185803   
        16           16.000000         3.447658187       269.009896241     -1262.535737341   
        17           17.000000         4.108897757       320.604334665     -1263.444388650   
        18           18.000000         3.877692396       302.564109476     -1263.108480341   
        19           19.000000         3.590169960       280.129640499     -1262.743509290   
        20           20.000000         3.996887514       311.864528626     -1263.350892742   
        21           21.000000         3.623108325       282.699717198     -1262.754167347   
        22           22.000000         3.992275674       311.504681328     -1263.245066047   
        23           23.000000         4.057422949       316.587917781     -1263.372678911   
        24           24.000000         3.496539068       272.823917225     -1262.600090787   
        25           25.000000         4.056877167       316.545332121     -1263.402709230   
        26           26.000000         3.921563465       305.987230667     -1263.166394306   
        27           27.000000         3.766217543       293.866078224     -1263.010668881   
        28           28.000000         4.054481439       316.358401014     -1263.482511193   
        29           29.000000         3.542917594       276.442687340     -1262.740756563   
        30           30.000000         3.972378937       309.952201683     -1263.299983964   
        31           31.000000         4.157154323       324.369642387     -1263.539935301   
        32           32.000000         3.594322425       280.453644259     -1262.754036603   
        33           33.000000         3.973225143       310.018228488     -1263.422456392   
        34           34.000000         3.757019276       293.148366450     -1263.095601004   
        35           35.000000         3.745391969       292.241124374     -1263.052382844   
        36           36.000000         4.112678382       320.899324918     -1263.690158532   
        37           37.000000         3.483006828       271.768039257     -1262.852957609   
        38           38.000000         3.801621850       296.628564679     -1263.284362438   
        39           39.000000         4.081591331       318.473700371     -1263.652413491   
        40           40.000000         3.699552609       288.664423669     -1263.026103685   
        41           41.000000         4.057182136       316.569127859     -1263.570717582   
        42           42.000000         3.695831860       288.374105305     -1263.071116649   
        43           43.000000         3.701370153       288.806240885     -1262.978796377   
        44           44.000000         4.217499877       329.078215608     -1263.706399289   
        45           45.000000         3.660285138       285.600506719     -1262.916335284   
        46           46.000000         3.839520011       299.585638673     -1263.220677837   
        47           47.000000         3.987991132       311.170372009     -1263.415983045   
        48           48.000000         3.727376034       290.835397754     -1262.984123945   
        49           49.000000         4.192140276       327.099485939     -1263.659745604   
        50           50.000000         3.729493479       291.000615352     -1263.048816177   
        51           51.000000         3.590840715       280.181977352     -1262.873693963   
        52           52.000000         4.111570880       320.812910014     -1263.595518537   
        53           53.000000         3.702116905       288.864507575     -1262.964579404   
        54           54.000000         3.883462513       303.014333474     -1263.267854465   
        55           55.000000         3.832969006       299.074484376     -1263.247224176   
        56           56.000000         3.514406040       274.218020745     -1262.741702198   
        57           57.000000         4.129758214       322.232010352     -1263.585091105   
        58           58.000000         3.801931424       296.652719773     -1263.131995636   
        59           59.000000         3.601207366       280.990854447     -1262.900178136   
        60           60.000000         3.980547960       310.589604775     -1263.445794772   
        61           61.000000         3.643029478       284.254101999     -1262.887779309   
        62           62.000000         3.984621254       310.907431035     -1263.374801331   
        63           63.000000         3.925765703       306.315118045     -1263.303954256   
        64           64.000000         3.468436814       270.631187018     -1262.669598613   
        65           65.000000         4.024728247       314.036853277     -1263.476622441   
        66           66.000000         3.838297526       299.490252026     -1263.194364100   
        67           67.000000         3.743525962       292.095525746     -1263.070102134   
        68           68.000000         4.006585574       312.621237662     -1263.481459749   
        69           69.000000         3.571420804       278.666702982     -1262.835845781   
        70           70.000000         4.001868673       312.253192749     -1263.417786663   
        71           71.000000         4.057468115       316.591441921     -1263.494930247   
        72           72.000000         3.565836008       278.230938943     -1262.807589738   
        73           73.000000         3.984292734       310.881797676     -1263.427476047   
        74           74.000000         3.799234517       296.442288603     -1263.136868462   
        75           75.000000         3.840616363       299.671183540     -1263.175714967   
        76           76.000000         4.107343619       320.483070210     -1263.611074428   
        77           77.000000         3.549221499       276.934561202     -1262.833420031   
        78           78.000000         3.903972790       304.614685743     -1263.344964684   
        79           79.000000         4.037634128       315.043858412     -1263.508456683   
        80           80.000000         3.649940570       284.793352715     -1262.938470515   
        81           81.000000         3.981888177       310.694177687     -1263.456436047   
        82           82.000000         3.675104118       286.756785001     -1263.024244747   
        83           83.000000         3.772140123       294.328198449     -1263.134030813   
        84           84.000000         4.161055578       324.674044975     -1263.581337524   
        85           85.000000         3.601183696       280.989007598     -1262.783505167   
        86           86.000000         3.828848698       298.752989762     -1263.171521856   
        87           87.000000         3.939242167       307.366643998     -1263.295018382   
        88           88.000000         3.707045385       289.249061353     -1262.953064214   
        89           89.000000         4.088980940       319.050288284     -1263.557552179   
        90           90.000000         3.654633474       285.159525209     -1262.961571603   
        91           91.000000         3.648938249       284.715144764     -1262.962039416   
        92           92.000000         4.078291577       318.216231003     -1263.570886095   
        93           93.000000         3.630262431       283.257929597     -1262.944285332   
        94           94.000000         3.809657517       297.255562418     -1263.283494657   
        95           95.000000         3.770162077       294.173857735     -1263.241039470   
        96           96.000000         3.558736112       277.676956410     -1262.883161921   
        97           97.000000         4.088173404       318.987278806     -1263.617156522   
        98           98.000000         3.710715523       289.535430602     -1263.076380024   
        99           99.000000         3.609695606       281.653165034     -1262.969594993   
       100          100.000000         3.957934848       308.825174994     -1263.466414574   
       101          101.000000         3.610447464       281.711830178     -1262.957982713   
       102          102.000000         3.902063251       304.465690402     -1263.396957047   
       103          103.000000         3.807599053       297.094946969     -1263.280069143   
       104          104.000000         3.509243628       273.815214025     -1262.833480582   
       105          105.000000         4.057054183       316.559144063     -1263.611993564   
       106          106.000000         3.786940501       295.483025316     -1263.200719637   
       107          107.000000         3.701061694       288.782172753     -1263.106715627   
       108          108.000000         3.931898023       306.793603584     -1263.449847292   
       109          109.000000         3.578050035       279.183960926     -1262.928374473   
       110          110.000000         3.971760930       309.903980514     -1263.501494628   
       111          111.000000         3.901982725       304.459407255     -1263.421854866   
       112          112.000000         3.505551462       273.527125935     -1262.892791034   
       113          113.000000         3.955640064       308.646120204     -1263.532889445   
       114          114.000000         3.757952039       293.221147001     -1263.169363007   
       115          115.000000         3.776578046       294.674475573     -1263.209164469   
       116          116.000000         3.936355946       307.141441302     -1263.466972444   
       117          117.000000         3.479627745       271.504380015     -1262.842371554   
       118          118.000000         3.908906187       304.999623156     -1263.427224558   
       119          119.000000         3.976243844       310.253768146     -1263.492939863   
       120          120.000000         3.636953682       283.780026753     -1263.021371621   
       121          121.000000         3.949009319       308.128744037     -1263.527606339   
       122          122.000000         3.666339778       286.072931152     -1263.106126587   
       123          123.000000         3.787647743       295.538209164     -1263.250457904   
       124          124.000000         4.017056147       313.438223498     -1263.576870305   
       125          125.000000         3.487850022       272.145938390     -1262.861796453   
       126          126.000000         3.800116703       296.511122739     -1263.330173412   
       127          127.000000         3.877744371       302.568164924     -1263.421727109   
       128          128.000000         3.664260018       285.910654028     -1263.105414663   
       129          129.000000         3.988802493       311.233679920     -1263.568358789   
       130          130.000000         3.608074609       281.526683746     -1263.029570340   
       131          131.000000         3.724197022       290.587349460     -1263.174320333   
       132          132.000000         4.063358365       317.051039518     -1263.632675111   
       133          133.000000         3.620114103       282.466087511     -1263.112382586   
       134          134.000000         3.848137355       300.258022828     -1263.478678590   
       135          135.000000         3.829796632       298.826954015     -1263.457624652   
       136          136.000000         3.694354340       288.258819094     -1263.228432952   
       137          137.000000         4.086724466       318.874222691     -1263.808041815   
       138          138.000000         3.649533824       284.761615562     -1263.222493329   
       139          139.000000         3.662567864       285.778620614     -1263.257192627   
       140          140.000000         4.016632266       313.405149398     -1263.712688624   
       141          141.000000         3.708225265       289.341123625     -1263.226890062   
       142          142.000000         3.943341179       307.686477000     -1263.579443760   
       143          143.000000         3.780040383       294.944630849     -1263.336672002   
       144          144.000000         3.578646794       279.230524160     -1263.051822004   
       145          145.000000         4.058570252       316.677438193     -1263.755613018   
       146          146.000000         3.725371593       290.678997583     -1263.284632548   
       147          147.000000         3.678675161       287.035422233     -1263.278875158   
       148          148.000000         3.907223098       304.868297007     -1263.610125847   
       149          149.000000         3.666983655       286.123170865     -1263.179074893   
       150          150.000000         4.045107142       315.626954157     -1263.706190431   
       151          151.000000         3.881959351       302.897046543     -1263.530460350   
       152          152.000000         3.581675144       279.466816769     -1263.077676285   
       153          153.000000         4.003689614       312.395275078     -1263.567572778   
       154          154.000000         3.764819782       293.757015326     -1263.198546430   
       155          155.000000         3.801688122       296.633735675     -1263.322203507   
       156          156.000000         3.924319272       306.202257560     -1263.545573216   
       157          157.000000         3.593104224       280.358591880     -1263.064672496   
       158          158.000000         4.036349292       314.943606742     -1263.641331916   
       159          159.000000         3.990483564       311.364848653     -1263.590971627   
       160          160.000000         3.680745556       287.196968611     -1263.173104171   
       161          161.000000         3.966136313       309.465109446     -1263.608655356   
       162          162.000000         3.720784740       290.321099892     -1263.197539846   
       163          163.000000         3.872005414       302.120372164     -1263.408512909   
       164          164.000000         4.008900877       312.801893504     -1263.639054000   
       165          165.000000         3.574850303       278.934295975     -1263.061608827   
       166          166.000000         3.915640338       305.525067687     -1263.563849552   
       167          167.000000         3.931422525       306.756501985     -1263.533495338   
       168          168.000000         3.741644124       291.948691809     -1263.215906170   
       169          169.000000         3.972753584       309.981434213     -1263.597428371   
       170          170.000000         3.625100529       282.855162604     -1263.079224185   
       171          171.000000         3.805012600       296.893134171     -1263.314059370   
       172          172.000000         4.037533325       315.035993073     -1263.650443918   
       173          173.000000         3.628634803       283.130930854     -1263.045606897   
       174          174.000000         3.859133912       301.116049496     -1263.397046746   
       175          175.000000         3.798231569       296.364031678     -1263.298325144   
       176          176.000000         3.712285683       289.657945271     -1263.147688920   
       177          177.000000         4.028616198       314.340217826     -1263.591487611   
       178          178.000000         3.642974063       284.249778132     -1263.073433729   
       179          179.000000         3.749812840       292.586070949     -1263.228411590   
       180          180.000000         3.986005753       311.015459127     -1263.562986585   
       181          181.000000         3.666507852       286.086045428     -1263.125919078   
       182          182.000000         3.877891136       302.579616546     -1263.439979434   
       183          183.000000         3.723781541       290.554930789     -1263.193462468   
       184          184.000000         3.638629559       283.910790159     -1263.026702278   
       185          185.000000         4.017743842       313.491882153     -1263.556213096   
       186          186.000000         3.678297311       287.005939809     -1263.068298032   
       187          187.000000         3.728751001       290.942682068     -1263.193700650   
       188          188.000000         3.900968416       304.380263905     -1263.403995472   
       189          189.000000         3.658653850       285.473222456     -1263.026589412   
       190          190.000000         3.936788032       307.175155582     -1263.461585883   
       191          191.000000         3.729552682       291.005234731     -1263.208981180   
       192          192.000000         3.576532715       279.065569227     -1262.980395642   
       193          193.000000         3.968281825       309.632516957     -1263.581397262   
       194          194.000000         3.730955707       291.114708328     -1263.202569612   
       195          195.000000         3.804390259       296.844574859     -1263.350078947   
       196          196.000000         3.889294470       303.469382688     -1263.478351789   
       197          197.000000         3.648092950       284.649188764     -1263.069151171   
       198          198.000000         4.013906203       313.192443269     -1263.555478759   
       199          199.000000         3.864440584       301.530112370     -1263.431345232   
       200          200.000000         3.657467926       285.380688532     -1263.143189050   
       201          201.000000         3.946971139       307.969711299     -1263.552853960   
       202          202.000000         3.733364424       291.302652982     -1263.250886533   
       203          203.000000         3.880203497       302.760042780     -1263.387160507   
       204          204.000000         3.930425654       306.678719300     -1263.472981828   
       205          205.000000         3.600901275       280.966971179     -1263.004535065   
       206          206.000000         3.923300129       306.122737050     -1263.465367508   
       207          207.000000         3.831524097       298.961742728     -1263.373585693   
       208          208.000000         3.687105761       287.693235334     -1263.099149701   
       209          209.000000         3.904795239       304.678858851     -1263.457908293   
       210          210.000000         3.637883430       283.852572086     -1263.052929077   
       211          211.000000         3.816318080       297.775265172     -1263.293253236   
       212          212.000000         3.900226690       304.322389372     -1263.410162098   
       213          213.000000         3.580201400       279.351825217     -1262.968843913   
       214          214.000000         3.859597717       301.152238719     -1263.368852188   
       215          215.000000         3.796333982       296.215968981     -1263.252908671   
       216          216.000000         3.730114928       291.049105018     -1263.156283920   
       217          217.000000         3.925534607       306.297086349     -1263.461827321   
       218          218.000000         3.596698348       280.639030002     -1263.007027737   
       219          219.000000         3.772095641       294.324727712     -1263.243989511   
       220          220.000000         3.930113405       306.654355463     -1263.442859216   
       221          221.000000         3.663296839       285.835500218     -1263.064625447   
       222          222.000000         3.877422580       302.543056605     -1263.396802443   
       223          223.000000         3.753995586       292.912437483     -1263.212480111   
       224          224.000000         3.746110749       292.297208483     -1263.152514619   
       225          225.000000         4.018083918       313.518417235     -1263.566785656   
       226          226.000000         3.701529463       288.818671326     -1263.121134274   
       227          227.000000         3.804772556       296.874404305     -1263.237668653   
       228          228.000000         3.921546794       305.985929818     -1263.387686550   
       229          229.000000         3.737313835       291.610813038     -1263.148285462   
       230          230.000000         3.980457837       310.582572796     -1263.519312375   
       231          231.000000         3.795178316       296.125796036     -1263.287476902   
       232          232.000000         3.737168761       291.599493352     -1263.130939972   
       233          233.000000         4.006953737       312.649964320     -1263.546550843   
       234          234.000000         3.735181003       291.444394851     -1263.172672481   
       235          235.000000         3.820702556       298.117371954     -1263.320111621   
       236          236.000000         3.874008252       302.276647369     -1263.390504785   
       237          237.000000         3.702996973       288.933176540     -1263.165595126   
       238          238.000000         3.980846049       310.612863729     -1263.593311635   
       239          239.000000         3.781263823       295.040092000     -1263.325388609   
       240          240.000000         3.670916252       286.430018987     -1263.176430633   
       241          241.000000         3.913364975       305.347528344     -1263.519493072   
       242          242.000000         3.719798962       290.244182763     -1263.174787420   
       243          243.000000         3.861280294       301.283524923     -1263.395149564   
       244          244.000000         3.882462821       302.936330724     -1263.425135381   
       245          245.000000         3.688884800       287.832048181     -1263.119820834   
       246          246.000000         3.984988343       310.936073883     -1263.530237443   
       247          247.000000         3.842334181       299.805219417     -1263.307660858   
       248          248.000000         3.727310623       290.830293979     -1263.169073106   
       249          249.000000         3.896638576       304.042420139     -1263.436522628   
       250          250.000000         3.703692947       288.987481167     -1263.136293732   
       251          251.000000         3.908692412       304.982942985     -1263.341057127   
       252          252.000000         3.931010160       306.724326435     -1263.375318111   
       253          253.000000         3.678172547       286.996204818     -1263.053386689   
       254          254.000000         3.921235118       305.961610740     -1263.401229869   
       255          255.000000         3.812802072       297.500922099     -1263.256300782   
       256          256.000000         3.757488153       293.184951486     -1263.184761844   
       257          257.000000         3.880062728       302.749058986     -1263.399793849   
       258          258.000000         3.650908245       284.868857288     -1262.974362647   
       259          259.000000         3.864708721       301.551034266     -1263.295654540   
       260          260.000000         3.920482018       305.902848707     -1263.437506905   
       261          261.000000         3.691884530       288.066107587     -1263.159882295   
       262          262.000000         3.873675593       302.250691015     -1263.445479449   
       263          263.000000         3.750376552       292.630055632     -1263.230059618   
       264          264.000000         3.778135324       294.795985081     -1263.213826429   
       265          265.000000         3.955498901       308.635105660     -1263.453754818   
       266          266.000000         3.690946000       287.992877094     -1263.068974332   
       267          267.000000         3.845976537       300.089421010     -1263.276614848   
       268          268.000000         3.926329801       306.359132818     -1263.379123123   
       269          269.000000         3.770167633       294.174291324     -1263.109324308   
       270          270.000000         3.927418147       306.444053028     -1263.366416365   
       271          271.000000         3.742428702       292.009909967     -1263.113171794   
       272          272.000000         3.769314693       294.107739060     -1263.123699936   
       273          273.000000         3.986936968       311.088118886     -1263.386905965   
       274          274.000000         3.764381922       293.722850523     -1263.052014777   
       275          275.000000         3.865240459       301.592524079     -1263.215643149   
       276          276.000000         3.877407289       302.541863473     -1263.243425461   
       277          277.000000         3.743294480       292.077463913     -1263.052691215   
       278          278.000000         3.939808417       307.410826706     -1263.342163623   
       279          279.000000         3.755622073       293.039347080     -1263.094962984   
       280          280.000000         3.739299121       291.765718656     -1263.056105195   
       281          281.000000         3.934112809       306.966416409     -1263.326808922   
       282          282.000000         3.752785078       292.817985302     -1263.066936644   
       283          283.000000         3.858890805       301.097080640     -1263.188337135   
       284          284.000000         3.817257229       297.848544003     -1263.140249762   
       285          285.000000         3.689389425       287.871422446     -1262.924701695   
       286          286.000000         3.927822865       306.475631866     -1263.278013828   
       287          287.000000         3.779069295       294.868859902     -1263.062137254   
       288          288.000000         3.748012776       292.445617627     -1263.044389776   
       289          289.000000         3.899794413       304.288660144     -1263.226835378   
       290          290.000000         3.761619194       293.507283547     -1263.011083596   
       291          291.000000         3.908990260       305.006183101     -1263.235500257   
       292          292.000000         3.854308598       300.739545427     -1263.187301765   
       293          293.000000         3.695220731       288.326420833     -1262.983751498   
       294          294.000000         3.925491696       306.293738101     -1263.285688981   
       295          295.000000         3.827296515       298.631877786     -1263.128669875   
       296          296.000000         3.813785062       297.577621735     -1263.092558867   
       297          297.000000         3.905418603       304.727497977     -1263.279987019   
       298          298.000000         3.721064777       290.342950253     -1263.003701590   
       299          299.000000         3.879850983       302.732537233     -1263.230865766   
       300          300.000000         3.866808525       301.714875314     -1263.207311410   
       301          301.000000         3.715443809       289.904363884     -1263.001749520   
       302          302.000000         3.891161432       303.615055850     -1263.252859892   
       303          303.000000         3.802983553       296.734814077     -1263.130999152   
       304          304.000000         3.840292224       299.645892027     -1263.177724231   
       305          305.000000         3.918554780       305.752472425     -1263.222733247   
       306          306.000000         3.708176012       289.337280618     -1262.933189643   
       307          307.000000         3.846645912       300.141650234     -1263.135001070   
       308          308.000000         3.854358462       300.743436220     -1263.141061737   
       309          309.000000         3.733268449       291.295164347     -1262.969991539   
       310          310.000000         3.872041219       302.123165917     -1263.190274083   
       311          311.000000         3.757775764       293.207392840     -1263.004354873   
       312          312.000000         3.822651269       298.269423920     -1263.099105396   
       313          313.000000         3.922417587       306.053875105     -1263.238128595   
       314          314.000000         3.711156417       289.569832184     -1262.950573895   
       315          315.000000         3.818210263       297.922906184     -1263.143081372   
       316          316.000000         3.834022213       299.156662779     -1263.130547854   
       317          317.000000         3.784221272       295.270852430     -1263.031573883   