#     Step Nr.          Time[fs]        Kin.[a.u.]          Temp[K]            Pot.[a.u.]        Cons Qty[a.u.]        UsedTime[s]
         0            0.000000         3.844830508       300.000000000     -1262.482075183     -1258.636769652         0.000000000
         1            1.000000         3.404157884       265.615704755     -1261.894682849     -1258.489253960        37.004204240
         2            2.000000         3.308019234       258.114309096     -1261.817732093     -1258.507774458        10.159880070
         3            3.000000         3.476499586       271.260299632     -1262.021110995     -1258.542088055         9.624388022
         4            4.000000         3.438648432       268.306893494     -1261.858582927     -1258.416885140         9.639080741
         5            5.000000         3.792698456       295.932300390     -1262.313862968     -1258.517632818         9.637551839
         6            6.000000         3.594745349       280.486643658     -1261.995336925     -1258.396589558         9.671093769
         7            7.000000         3.589542727       280.080699441     -1261.869704475     -1258.275744611         9.603688104
         8            8.000000         4.128693545       322.148937574     -1262.481865512     -1258.348346240         9.593201397
         9            9.000000         3.970404624       309.798152276     -1262.137344994     -1258.161644518         9.602974070
        10           10.000000         3.963638535       309.270215700     -1262.125203304     -1258.155778095         9.622266440
        11           11.000000         3.949634401       308.177517223     -1262.069128784     -1258.113193607         9.601070430
        12           12.000000         3.895608812       303.962070886     -1261.855880434     -1257.953440467         9.638489889
        13           13.000000         4.463660288       348.285336267     -1262.536155736     -1258.065069515         9.599901792
        14           14.000000         4.345869308       339.094477500     -1262.311390211     -1257.957347209         9.637654772
        15           15.000000         4.140982487       323.107804966     -1261.968166912     -1257.818181634         9.603179902
        16           16.000000         4.410058226       344.102936351     -1262.348349594     -1257.928372111         9.598856810
        17           17.000000         4.265915377       332.855924417     -1262.124961083     -1257.848081085         9.611857332
        18           18.000000         4.409846204       344.086392982     -1262.351317982     -1257.929356806         9.610929092
        19           19.000000         4.252777288       331.830800745     -1262.206199480     -1257.940039777         9.581953347
        20           20.000000         3.898637468       304.198387373     -1261.751653055     -1257.838358418         9.574072029
        21           21.000000         4.358262145       340.061451537     -1262.389231844     -1258.014985621         9.624658048
        22           22.000000         4.330539693       337.898355984     -1262.355112518     -1258.007090396         9.586996209
        23           23.000000         4.117188932       321.251268946     -1262.152394864     -1258.016164957         9.590249725
        24           24.000000         4.115849885       321.146787279     -1262.300583626     -1258.164108978         9.656765813
        25           25.000000         3.795153786       296.123882031     -1261.898962685     -1258.081614952         9.581619246
        26           26.000000         4.058322395       316.658098680     -1262.320544210     -1258.238465266         9.584740981
        27           27.000000         4.030611189       314.495880634     -1262.363936292     -1258.307922698         9.592041852
        28           28.000000         3.596083066       280.591021501     -1261.843117841     -1258.220054702         9.596407278
        29           29.000000         3.868435652       301.841834930     -1262.281264375     -1258.384337350         9.628521757
        30           30.000000         3.882384004       302.930180825     -1262.267563440     -1258.355122108         9.589469340
        31           31.000000         3.909635384       305.056520064     -1262.278968348     -1258.337695568         9.655454777
        32           32.000000         3.929089185       306.574438819     -1262.377378510     -1258.415051942         9.635501849
        33           33.000000         3.458222579       269.834202433     -1261.717201688     -1258.224231775         9.597180361
        34           34.000000         3.748576828       292.489628895     -1262.096888674     -1258.312150083         9.615041668
        35           35.000000         3.983954737       310.855424873     -1262.350005328     -1258.328394901         9.645604705
        36           36.000000         3.773886838       294.464489141     -1262.040722565     -1258.227668220         9.664980276
        37           37.000000         3.953692323       308.494144141     -1262.294401389     -1258.300044196         9.624188814
        38           38.000000         3.827059609       298.613392780     -1262.052605814     -1258.183363884         9.649649857
        39           39.000000         4.010609249       312.935192360     -1262.215375049     -1258.161055415         9.602503365
        40           40.000000         4.263751715       332.687100685     -1262.515622002     -1258.206514289         9.605072040
        41           41.000000         3.816818917       297.814343832     -1261.847485307     -1257.983640554        10.174449172
        42           42.000000         3.963209992       309.236777826     -1262.019298964     -1258.007451851        10.196450131
        43           43.000000         4.188041390       326.779662813     -1262.238933692     -1258.000546603        10.183902225
        44           44.000000         4.188550849       326.819414295     -1262.128859494     -1257.888146669        10.169694489
        45           45.000000         4.419053022       344.804771947     -1262.431679787     -1257.958523401         9.573954189
        46           46.000000         4.087120334       318.905111044     -1261.960437763     -1257.817195459        10.196745496
        47           47.000000         4.147383868       323.607284582     -1262.036194726     -1257.830682308         9.636468295
        48           48.000000         4.491635925       350.468186963     -1262.483393765     -1257.931459800        10.135018419
        49           49.000000         4.176445684       325.874886414     -1262.025653371     -1257.786621488        10.160685176
        50           50.000000         4.197174223       327.492268933     -1262.101965493     -1257.839927634        10.144557307
        51           51.000000         4.147010927       323.578185158     -1262.059586971     -1257.845385361        10.140152059
        52           52.000000         4.126195673       321.954036548     -1262.002068694     -1257.806327588        10.136467507
        53           53.000000         4.467471767       348.582733926     -1262.524553057     -1257.985036976        10.213725137
        54           54.000000         4.056870084       316.544779401     -1262.031441663     -1257.899955961        10.139813380
        55           55.000000         3.880072212       302.749799037     -1261.888572049     -1257.931463127        10.180804290
        56           56.000000         4.091140881       319.218821652     -1262.245451783     -1258.074850671         9.649809878
        57           57.000000         3.914294392       305.420047823     -1262.013712550     -1258.017510157        10.135318121
        58           58.000000         4.039373334       315.179563189     -1262.245540254     -1258.121833645        10.195063956
        59           59.000000         3.827259434       298.628984520     -1262.023239385     -1258.109246917        10.135834260
        60           60.000000         3.658301134       285.445701149     -1261.815340718     -1258.068055420        10.203534966
        61           61.000000         4.080012038       318.350473118     -1262.400912013     -1258.229644156        10.172092242
        62           62.000000         3.860796269       301.245757931     -1262.118156118     -1258.163774635        10.161586428
        63           63.000000         3.689487635       287.879085492     -1261.968930139     -1258.183671697        10.172321057
        64           64.000000         3.756164973       293.081707924     -1262.110013057     -1258.255980637        10.158551686
        65           65.000000         3.648976498       284.718129175     -1261.895989893     -1258.147115744        10.193133431
        66           66.000000         4.026180401       314.150160275     -1262.379024931     -1258.250905823        10.206242975
        67           67.000000         3.920559798       305.908917669     -1262.260479116     -1258.235879074        10.188178493
        68           68.000000         3.658123322       285.431827045     -1261.893559132     -1258.129416265        10.151290741
        69           69.000000         4.017621486       313.482335116     -1262.367557264     -1258.241971141        10.144047352
        70           70.000000         3.978724281       310.447308888     -1262.232343624     -1258.143641072        10.193944328
        71           71.000000         4.027952205       314.288408536     -1262.286076917     -1258.146139615        10.147547416
        72           72.000000         4.026677794       314.188970237     -1262.270742841     -1258.130064648        10.205240482
        73           73.000000         3.777746573       294.765652102     -1261.878036620     -1257.984346231        10.177895550
        74           74.000000         4.212247233       328.668368366     -1262.405320502     -1258.075177742        10.140278153
        75           75.000000         4.273737888       333.466290269     -1262.426221082     -1258.032488398        10.185540738
        76           76.000000         4.030858744       314.515196583     -1262.084100767     -1257.931154003         9.642218908
        77           77.000000         4.182985626       326.385177504     -1262.302097432     -1257.994949142         9.607262872
        78           78.000000         4.065305669       317.202981555     -1262.075363381     -1257.883793990         9.617006576
        79           79.000000         4.271215295       333.269460353     -1262.330164332     -1257.930554210         9.614915179
        80           80.000000         4.316681102       336.817013865     -1262.396844374     -1257.949534488         9.572188532
        81           81.000000         3.896897706       304.062639267     -1261.840888207     -1257.811188614         9.625560177
        82           82.000000         4.153562257       324.089364786     -1262.193790392     -1257.905319466        10.153541775
        83           83.000000         4.243574107       331.112705574     -1262.282103512     -1257.901414722        10.147596467
        84           84.000000         4.135086851       322.647787139     -1262.138084035     -1257.863655789         9.554719070
        85           85.000000         4.193845169       327.232513396     -1262.318597965     -1257.983187228        10.148135116
        86           86.000000         3.855115337       300.802492748     -1261.868723289     -1257.869886157        10.143130500
        87           87.000000         4.046176975       315.710429896     -1262.149609934     -1257.957634438        10.098369941
        88           88.000000         4.249998377       331.613971081     -1262.455703980     -1258.057740439        10.139833137
        89           89.000000         3.878408192       302.619960792     -1261.997354140     -1257.968844968        10.113537244
        90           90.000000         3.934413770       306.989899435     -1262.174324828     -1258.087795276        10.124790587
        91           91.000000         3.883824428       303.042572623     -1262.109848008     -1258.071930956        10.116020460
        92           92.000000         3.911107523       305.171386421     -1262.129122339     -1258.061995583        10.079881230
        93           93.000000         4.090287461       319.152231984     -1262.423518435     -1258.175271122        10.122966895
        94           94.000000         3.678841683       287.048415415     -1261.905822478     -1258.067153996        10.136440428
        95           95.000000         3.722223477       290.433359950     -1262.008140189     -1258.124382275        10.117280172
        96           96.000000         3.949324761       308.153357045     -1262.316519625     -1258.203959438        10.139395092
        97           97.000000         3.803855247       296.802829592     -1262.091621602     -1258.122847604        10.115537101
        98           98.000000         3.913255181       305.338961403     -1262.257171545     -1258.177370831        10.096285284
        99           99.000000         3.703890653       289.002907546     -1261.988856858     -1258.116853412        10.150966413
       100          100.000000         3.727235060       290.824397985     -1261.989774591     -1258.092961698        10.105432138
       101          101.000000         4.102327118       320.091648415     -1262.466509137     -1258.193117911        10.136243355
       102          102.000000         3.847219833       300.186431446     -1262.079966610     -1258.060177841        10.091786873
       103          103.000000         3.845704014       300.068156862     -1262.096228569     -1258.076532180         9.583962707
       104          104.000000         3.964947645       309.372361408     -1262.238277558     -1258.097927920         9.557964005
       105          105.000000         3.930235291       306.663865868     -1262.097752179     -1257.990707264         9.551855834
       106          106.000000         4.220099750       329.281075568     -1262.461712736     -1258.063361895         9.590846539
       107          107.000000         3.988820690       311.235099793     -1262.136576426     -1257.968025360        10.083025692
       108          108.000000         3.872904327       302.190511560     -1261.948077904     -1257.894030757        10.123898618
       109          109.000000         4.228086797       329.904279609     -1262.394377273     -1257.983710968        10.129534330
       110          110.000000         4.126962117       322.013839717     -1262.185807860     -1257.874751705        10.096586116
       111          111.000000         4.167563441       325.181833031     -1262.273565086     -1257.920377193         9.537967240
       112          112.000000         4.111146976       320.779834167     -1262.226821162     -1257.928493518         9.578538094
       113          113.000000         3.975649379       310.207383921     -1262.020299506     -1257.855932663        10.095387207
       114          114.000000         4.347054880       339.186984009     -1262.501797673     -1257.964439339         9.576235490
       115          115.000000         4.188356114       326.804219710     -1262.296542428     -1257.916199402         9.553964226
       116          116.000000         3.950280711       308.227946793     -1262.022051951     -1257.878146421        10.172649341
       117          117.000000         4.088411133       319.005828002     -1262.256009436     -1257.972361121         9.574796518
       118          118.000000         3.984041496       310.862194376     -1262.081641141     -1257.900735611         9.553090464
       119          119.000000         4.146879469       323.567927873     -1262.337799414     -1257.992417610         9.588574484
       120          120.000000         4.040712892       315.284084698     -1262.289756288     -1258.048871166         9.549469724
       121          121.000000         3.733897152       291.344220001     -1261.916002880     -1257.980347845         9.566947943
       122          122.000000         4.041765470       315.366214015     -1262.352102514     -1258.107034530         9.594832072
       123          123.000000         4.037190031       315.009206994     -1262.328631630     -1258.086534930         9.551082328
       124          124.000000         3.923845855       306.165318341     -1262.217310440     -1258.086973404         9.582827771
       125          125.000000         3.926536629       306.375270924     -1262.288667367     -1258.154090195         9.556544175
       126          126.000000         3.701227979       288.795147472     -1261.984942893     -1258.074188626         9.582287891
       127          127.000000         3.969433459       309.722375329     -1262.374942890     -1258.194535389         9.552120687
       128          128.000000         4.012287358       313.066129927     -1262.455365862     -1258.230607246         9.551437728
       129          129.000000         3.694459191       288.267000275     -1262.045890364     -1258.137517501         9.554467557
       130          130.000000         3.841654946       299.752220915     -1262.276074235     -1258.219140110        10.144830205
       131          131.000000         3.838749652       299.525529970     -1262.229866859     -1258.174476249        10.148407342
       132          132.000000         3.949132100       308.138324295     -1262.338881567     -1258.171751159         9.567110866
       133          133.000000         4.047599093       315.821393273     -1262.494670391     -1258.227682749         9.592830524
       134          134.000000         3.712761410       289.695064766     -1262.051204402     -1258.117698996        10.143724006
       135          135.000000         3.905244115       304.713883246     -1262.324951867     -1258.197669310        10.099680176
       136          136.000000         4.085061921       318.744499550     -1262.509751411     -1258.201303684        10.140815577
       137          137.000000         3.949033589       308.130637804     -1262.301528974     -1258.127735578        10.143381055
       138          138.000000         4.036883387       314.985280527     -1262.425801074     -1258.162786784        10.141928447
       139          139.000000         3.886164582       303.225167436     -1262.179982539     -1258.066315082        10.119090764
       140          140.000000         4.034594328       314.806672418     -1262.302866514     -1258.039402815        10.114632780
       141          141.000000         4.288888067       334.648411019     -1262.617972199     -1258.098756526        10.161620280
       142          142.000000         4.003128008       312.351454738     -1262.197427614     -1257.962460987        10.100896642
       143          143.000000         4.058202478       316.648741945     -1262.279432149     -1257.987901343        10.139015194
       144          144.000000         4.147539162       323.619401672     -1262.379496223     -1257.997087882        10.150164813
       145          145.000000         4.135936325       322.714068923     -1262.319993704     -1257.947592725        10.138276389
       146          146.000000         4.297133364       335.291765546     -1262.573474139     -1258.038205958         9.579706172
       147          147.000000         4.004446813       312.454356890     -1262.214980603     -1257.970693206        10.173482619
       148          148.000000         3.989617643       311.297283552     -1262.192333840     -1257.961214786        10.112439813
       149          149.000000         4.234629667       330.414799097     -1262.514004097     -1258.036149244        10.149489412
       150          150.000000         4.055131810       316.409147395     -1262.253979912     -1257.953836727        10.144152943
       151          151.000000         4.070801479       317.631802257     -1262.333596855     -1258.016006547        10.142305296
       152          152.000000         3.982994000       310.780461586     -1262.246986797     -1258.015420892         9.606542936
       153          153.000000         3.944742496       307.795817336     -1262.185140566     -1257.990064012         9.605084440
       154          154.000000         4.221917851       329.422936182     -1262.597531633     -1258.123458002        10.109487800
       155          155.000000         3.985467578       310.973467036     -1262.285196933     -1258.045700120         9.592983410
       156          156.000000         3.863073687       301.423457676     -1262.155448765     -1258.036545313         9.573279882
       157          157.000000         3.991999803       311.483155993     -1262.369719144     -1258.120100156         9.602311127
       158          158.000000         3.907617255       304.899051835     -1262.256122368     -1258.089084229         9.566553762
       159          159.000000         4.052867454       316.232466830     -1262.462819854     -1258.148719652         9.575824812
       160          160.000000         3.908073812       304.934675533     -1262.296011040     -1258.124879639         9.602430616
       161          161.000000         3.761191764       293.473932567     -1262.111494462     -1258.085496179         9.654724877
       162          162.000000         4.060244054       316.808039690     -1262.505418823     -1258.178612272        10.138436222
       163          163.000000         3.986932179       311.087745286     -1262.373952627     -1258.118638103        10.184051547
       164          164.000000         3.930227790       306.663280606     -1262.309864773     -1258.109456355        10.170562055
       165          165.000000         3.945276794       307.837506884     -1262.337452504     -1258.120208607        10.141863227
       166          166.000000         3.837567774       299.433311785     -1262.147691725     -1258.036395408        10.134861790
       167          167.000000         4.113855509       320.991172459     -1262.506495730     -1258.117125143         9.622836184
       168          168.000000         4.069670464       317.543552754     -1262.403803155     -1258.056752374        10.163499026
       169          169.000000         3.856888947       300.940881919     -1262.138224449     -1258.002128112        10.194907567
       170          170.000000         4.023783556       313.963142013     -1262.358915234     -1258.054117029        10.155423794
       171          171.000000         3.983282294       310.802956247     -1262.229555382     -1257.963412043         9.639743745
       172          172.000000         4.058051329       316.636948290     -1262.297299577     -1257.954522734         9.579779189
       173          173.000000         4.060729178       316.845892378     -1262.347988973     -1258.000630947         9.619800763
       174          174.000000         3.845574841       300.058077950     -1262.039652275     -1257.905578081        10.187286822
       175          175.000000         4.086040853       318.820882557     -1262.360493763     -1257.984086974        10.158379916
       176          176.000000         4.114294077       321.025392491     -1262.389079243     -1257.982466231         9.607322820
       177          177.000000         3.961783199       309.125449654     -1262.207004778     -1257.950950091        10.189823655
       178          178.000000         4.037381495       315.024146285     -1262.324684112     -1257.991089386         9.624892047
       179          179.000000         3.903123150       304.548391016     -1262.125873959     -1257.924598318        10.157395480
       180          180.000000         4.039970689       315.226172896     -1262.290791133     -1257.950731601        10.146352518
       181          181.000000         4.123151105       321.716478492     -1262.421311640     -1257.996064965        10.198100911
       182          182.000000         3.867208963       301.746120290     -1262.110117974     -1257.938823446         9.603246618
       183          183.000000         3.992271626       311.504365498     -1262.310611595     -1258.012305561         9.628724055
       184          184.000000         4.043934580       315.535462837     -1262.367700197     -1258.015733034         9.637440184
       185          185.000000         4.026839607       314.201596039     -1262.338737665     -1258.001842468         9.616642535
       186          186.000000         4.088443347       319.008341617     -1262.482686909     -1258.082137376         9.669510383
       187          187.000000         3.862415627       301.372111393     -1262.192600590     -1258.016050783        10.207601812
       188          188.000000         3.980042670       310.550178573     -1262.338931834     -1258.042766020         9.617818845
       189          189.000000         4.136833121       322.784043051     -1262.526295455     -1258.071275473        10.232299104
       190          190.000000         3.954223489       308.535589353     -1262.279327825     -1258.004832800         9.631004801
       191          191.000000         3.984754351       310.917816224     -1262.379925652     -1258.072850706        10.242136970
       192          192.000000         3.910602994       305.132019672     -1262.299014106     -1258.064051277        10.256152522
       193          193.000000         3.943960809       307.734824753     -1262.301690840     -1258.031349864         9.660433020
       194          194.000000         4.108907915       320.605127325     -1262.539501246     -1258.102142700         9.650319036
       195          195.000000         3.862674073       301.392277118     -1262.250833710     -1258.057640595         9.719892120
       196          196.000000         3.862679736       301.392718919     -1262.283399729     -1258.088211118        10.247176059
       197          197.000000         3.996963250       311.870438068     -1262.421415923     -1258.089937076         9.675094720
       198          198.000000         3.938780638       307.330632331     -1262.267616951     -1257.992293063        10.298730832
       199          199.000000         4.028349570       314.319413640     -1262.408465338     -1258.041538649        10.286845619
       200          200.000000         3.866016722       301.653093436     -1262.200841227     -1257.994225848         9.681542683
       201          201.000000         3.840057782       299.627599200     -1262.146879140     -1257.964266088         9.774760744
       202          202.000000         4.085083785       318.746205569     -1262.477188840     -1258.047556391         9.703769552
       203          203.000000         3.965756950       309.435508921     -1262.319699548     -1258.007353434         9.701929683
       204          204.000000         3.955727905       308.652974141     -1262.320036225     -1258.015708645        10.270125132
       205          205.000000         3.995261262       311.737637351     -1262.361704875     -1258.015826815         9.729569893
       206          206.000000         3.961136652       309.075001595     -1262.271192229     -1257.957416223         9.719427746
       207          207.000000         4.140247223       323.050434667     -1262.515361524     -1258.020410979        10.308767362
       208          208.000000         3.994304786       311.663006491     -1262.320645661     -1257.969537459        10.339454498
       209          209.000000         3.889948236       303.520394011     -1262.163624428     -1257.914830989        10.340513732
       210          210.000000         4.067966157       317.410571006     -1262.398652517     -1257.969789400        10.306383695
       211          211.000000         4.023874066       313.970204206     -1262.316039152     -1257.929167024         9.768407112
       212          212.000000         4.078723500       318.249932603     -1262.392794429     -1257.948955129        10.279348904
       213          213.000000         4.018795211       313.573917131     -1262.343741615     -1257.957694831        10.296897817
       214          214.000000         3.882839337       302.965709039     -1262.174970672     -1257.922788246        10.335576475
       215          215.000000         4.083098366       318.591289568     -1262.451912630     -1257.997372747        10.318421891
       216          216.000000         4.017032368       313.436368081     -1262.339702332     -1257.949078788         9.731825653
       217          217.000000         3.902478653       304.498102968     -1262.217132901     -1257.938953996        10.290838642
       218          218.000000         3.964094474       309.305791138     -1262.332437777     -1257.990558581        10.318931673
       219          219.000000         3.888777856       303.429072952     -1262.216879739     -1257.948242125        10.307501284
       220          220.000000         4.016488881       313.393961512     -1262.400091157     -1258.001666236         9.791756328
       221          221.000000         3.977025634       310.314768783     -1262.373138730     -1258.012073353         9.776878430
       222          222.000000         3.781887054       295.088720747     -1262.130978046     -1257.963012813        10.357123489
       223          223.000000         3.929788818       306.629029006     -1262.352342587     -1258.034479842         9.724972904
       224          224.000000         3.934802557       307.020235268     -1262.344907835     -1258.020008445         9.730277129
       225          225.000000         3.916853466       305.619724229     -1262.343181788     -1258.034220198        10.309700500
       226          226.000000         3.933578812       306.924750239     -1262.413208010     -1258.085520446        10.924360950
       227          227.000000         3.804203325       296.829989014     -1262.217005772     -1258.016732904        10.350525301