#     Step Nr.          Time[fs]        Kin.[a.u.]          Temp[K]            Pot.[a.u.]        Cons Qty[a.u.]        UsedTime[s]
         0            0.000000         3.844830508       300.000000000     -1262.905446907     -1259.060141377         0.000000000
         1            1.000000         3.761657749       293.510291861     -1262.810127931     -1259.047151715        48.604519486
         2            2.000000         3.700833310       288.764352731     -1262.750937808     -1259.047974078        12.809731092
         3            3.000000         3.726223049       290.745433942     -1262.793525579     -1259.064389758        12.829793286
         4            4.000000         3.736107633       291.516696877     -1262.789059824     -1259.049276670        12.866428550
         5            5.000000         3.783747026       295.233848533     -1262.867937472     -1259.079766584        12.841587823
         6            6.000000         3.762723044       293.593413454     -1262.843972727     -1259.076088385        12.839206986
         7            7.000000         3.755954091       293.065253397     -1262.861084688     -1259.099250191        12.851166945
         8            8.000000         3.850329920       300.429101780     -1262.991205655     -1259.134282834        12.830429718
         9            9.000000         3.824440115       298.409001940     -1262.970410090     -1259.138659903        12.911978763
        10           10.000000         3.756720242       293.125033752     -1262.874051487     -1259.109317622        12.890077148
        11           11.000000         3.724686180       290.625516901     -1262.856682004     -1259.123304012        12.844053961
        12           12.000000         3.717977573       290.102065450     -1262.810181738     -1259.082860145        12.850876290
        13           13.000000         3.824168347       298.387796719     -1262.937190883     -1259.103039550        12.846491229
        14           14.000000         3.845622901       300.061827923     -1262.920048962     -1259.063799243        12.852689579
        15           15.000000         3.804091328       296.821250260     -1262.890761888     -1259.075402735        12.838764556
        16           16.000000         3.847473855       300.206251985     -1262.951168860     -1259.091791732        12.879098997
        17           17.000000         3.842865964       299.846712825     -1262.955164324     -1259.099756767        12.837775040
        18           18.000000         3.838299957       299.490441699     -1262.953572835     -1259.102093769        12.934629101
        19           19.000000         3.806085658       296.976861537     -1262.913563090     -1259.093665468        12.828263693
        20           20.000000         3.756789499       293.130437671     -1262.843486553     -1259.072266614        12.848282196
        21           21.000000         3.855553054       300.836646461     -1262.962263613     -1259.091670986        12.883589961
        22           22.000000         3.913597730       305.365689454     -1263.085808098     -1259.156547482        12.882126056
        23           23.000000         3.886922017       303.284267730     -1263.046664739     -1259.143441734        12.818939336
        24           24.000000         3.881711349       302.877695695     -1263.071486978     -1259.172829562        12.800608866
        25           25.000000         3.856303911       300.895233419     -1263.030382528     -1259.156482536        12.835437428
        26           26.000000         3.912870540       305.308949092     -1263.085619039     -1259.154494773        12.798337620
        27           27.000000         3.929042832       306.570822055     -1263.127320137     -1259.179346289        12.792752083
        28           28.000000         3.855006422       300.793994485     -1263.027680468     -1259.153055319        12.824120030
        29           29.000000         3.905043552       304.698233936     -1263.091916276     -1259.166562464        12.801204797
        30           30.000000         3.960187213       309.000919889     -1263.141395710     -1259.160184096        12.859447047
        31           31.000000         3.971072952       309.850299804     -1263.148643805     -1259.155802863        12.797423147
        32           32.000000         3.953486163       308.478058084     -1263.086064141     -1259.110040891        12.764081087
        33           33.000000         3.856377774       300.900996713     -1262.983614193     -1259.103920433        12.792046487
        34           34.000000         3.883920100       303.050037587     -1263.008207169     -1259.100192678        12.783881396
        35           35.000000         3.964997612       309.376260167     -1263.105465473     -1259.115573784        12.851353139
        36           36.000000         3.935271298       307.056809620     -1263.058361909     -1259.097368817        12.832435995
        37           37.000000         3.923810312       306.162545015     -1263.064406720     -1259.114031190        12.789184622
        38           38.000000         3.897957431       304.145326212     -1263.034219824     -1259.108840980        12.753703702
        39           39.000000         3.905938115       304.768033840     -1263.093632237     -1259.159405709        12.790165219
        40           40.000000         3.943821094       307.723923251     -1263.165892821     -1259.192896828        13.428771753
        41           41.000000         3.848420055       300.280080992     -1263.049278788     -1259.170786069        12.796495907
        42           42.000000         3.819160649       297.997061792     -1263.031009246     -1259.180888990        12.803679705
        43           43.000000         3.868034128       301.810505274     -1263.094714815     -1259.194833905        12.763072364
        44           44.000000         3.874145611       302.287365043     -1263.087225498     -1259.180334841        13.473805357
        45           45.000000         3.895868231       303.982312577     -1263.126058202     -1259.196535949        12.827225268
        46           46.000000         3.835623526       299.281608197     -1263.058644049     -1259.188452690        13.413929466
        47           47.000000         3.811816465       297.424018273     -1263.030637529     -1259.183349121        13.524425611
        48           48.000000         3.875213657       302.370701266     -1263.126101075     -1259.214509962        13.419932391
        49           49.000000         3.847368530       300.198033853     -1263.048353369     -1259.163692735        13.442402080
        50           50.000000         3.835971346       299.308747536     -1262.999326631     -1259.125151125        13.424715992
        51           51.000000         3.850678187       300.456275935     -1263.029062447     -1259.139267641        13.455919173
        52           52.000000         3.858739890       301.085305175     -1263.071277208     -1259.172503404        13.398043420
        53           53.000000         3.913784093       305.380230779     -1263.130222303     -1259.175474344        13.451100625
        54           54.000000         3.857123675       300.959196994     -1262.990707724     -1259.091678212        12.792099476
        55           55.000000         3.796474145       296.226905454     -1262.927210118     -1259.087898900        13.469926409
        56           56.000000         3.842956878       299.853806507     -1262.899482552     -1259.012764947        12.774438106
        57           57.000000         3.844992878       300.012669182     -1262.912983306     -1259.023300570        13.465316936
        58           58.000000         3.850214817       300.420120597     -1262.930056790     -1259.034220914        12.769414715
        59           59.000000         3.818274991       297.927956710     -1262.883250114     -1259.018424879        12.791337471
        60           60.000000         3.775917045       294.622899770     -1262.856344117     -1259.032961092        12.821980789
        61           61.000000         3.837026748       299.391097197     -1262.959825698     -1259.074425053        12.778770465
        62           62.000000         3.823836403       298.361896143     -1263.031017187     -1259.157895627        14.166290838
        63           63.000000         3.766497558       293.887926915     -1262.985526709     -1259.168845340        13.443438172
        64           64.000000         3.774316437       294.498009368     -1263.006231876     -1259.180851643        14.771437731
        65           65.000000         3.773211150       294.411767323     -1262.980935862     -1259.155793242        14.140487675
        66           66.000000         3.823174674       298.310263552     -1263.019715309     -1259.143747822        13.434856001
        67           67.000000         3.819052495       297.988622909     -1263.053735777     -1259.181028609        14.090873115
        68           68.000000         3.753727007       292.891481122     -1262.969824035     -1259.161593944        13.465246510
        69           69.000000         3.807838643       297.113641430     -1263.023278460     -1259.160103666        13.465114091
        70           70.000000         3.833444966       299.111622048     -1262.972883082     -1259.083267217        12.835511032
        71           71.000000         3.824617694       298.422857810     -1262.959639340     -1259.078016338        13.487626422
        72           72.000000         3.821639281       298.190461630     -1262.999671298     -1259.120196508        12.796564583
        73           73.000000         3.770211600       294.177721861     -1262.933519098     -1259.104652501        12.844784815
        74           74.000000         3.820827431       298.127115581     -1262.981372155     -1259.101081615        12.835400671
        75           75.000000         3.854080032       300.721711193     -1263.024285391     -1259.109929449        12.837280590
        76           76.000000         3.793354833       295.983515400     -1262.927019440     -1259.072578318        12.799534816
        77           77.000000         3.803076846       296.742093376     -1262.975809954     -1259.110849300        12.802253239
        78           78.000000         3.822319083       298.243504507     -1263.007077191     -1259.122080791        12.837292217
        79           79.000000         3.857713737       301.005237674     -1263.044944294     -1259.123757124        12.823752940
        80           80.000000         3.874790735       302.337702019     -1263.106058621     -1259.166989727        12.841527734
        81           81.000000         3.807469783       297.084860443     -1263.018171894     -1259.145619525        12.806611069
        82           82.000000         3.830617716       298.891020640     -1263.041638776     -1259.145142784        12.809947100
        83           83.000000         3.882123508       302.909855145     -1263.064270004     -1259.115465793        12.811869163
        84           84.000000         3.863651815       301.468567212     -1263.036857608     -1259.105712366        12.819705460
        85           85.000000         3.856699149       300.926072590     -1263.039467578     -1259.114459731        12.813741397
        86           86.000000         3.821412636       298.172777311     -1262.985499803     -1259.094964834        12.151833966
        87           87.000000         3.851159334       300.493818339     -1263.014466292     -1259.093373453        12.246406250
        88           88.000000         3.914405701       305.428732899     -1263.127860450     -1259.142696889        12.831078012
        89           89.000000         3.856556098       300.914910771     -1263.059321311     -1259.131170218        12.794271551
        90           90.000000         3.830523074       298.883636039     -1263.029140586     -1259.126190006        12.776330579
        91           91.000000         3.835551873       299.276017313     -1263.046795869     -1259.137987063        12.782891806
        92           92.000000         3.829126129       298.774636791     -1263.043931834     -1259.140720346        12.772292875
        93           93.000000         3.853197376       300.652840296     -1263.081594450     -1259.153482454        12.801188365
        94           94.000000         3.802155187       296.670179242     -1263.001151482     -1259.123254215        12.130607571
        95           95.000000         3.791309773       295.823945796     -1262.980371401     -1259.112504896        12.179722719
        96           96.000000         3.854899144       300.785623901     -1263.060268728     -1259.128000012        12.811805177
        97           97.000000         3.839882931       299.613956182     -1263.017193776     -1259.099121861        12.107606798
        98           98.000000         3.834531391       299.196392379     -1263.014869749     -1259.101331504        12.135787655
        99           99.000000         3.825715423       298.508510204     -1262.906016465     -1259.000478574        12.143764455
       100          100.000000         3.835446792       299.267818212     -1262.889882994     -1258.973799963        12.803598288
       101          101.000000         3.906529539       304.814180782     -1262.987966473     -1258.999977226        12.129191980
       102          102.000000         3.861901224       301.331974105     -1262.950120355     -1259.005922146        12.733642101
       103          103.000000         3.818324920       297.931852555     -1262.908198981     -1259.006744357        12.133424513
       104          104.000000         3.852016488       300.560699313     -1262.949622490     -1259.013646492        12.171479885
       105          105.000000         3.850740332       300.461124930     -1262.977372269     -1259.041837006        12.137520738
       106          106.000000         3.859145873       301.116982751     -1262.993990251     -1259.049210253        12.182738762
       107          107.000000         3.814946422       297.668238964     -1262.938610937     -1259.037191958        12.173136372
       108          108.000000         3.782190605       295.112405850     -1262.897959058     -1259.028469894        12.106770683
       109          109.000000         3.858516750       301.067894290     -1262.969043634     -1259.022405728        12.148981132
       110          110.000000         3.862741497       301.397537940     -1262.968223319     -1259.016526808        12.133724645
       111          111.000000         3.814376178       297.623744632     -1262.911372104     -1259.007207894        12.115918737
       112          112.000000         3.798309395       296.370104245     -1262.844273970     -1258.955354070        12.154096186
       113          113.000000         3.793576111       296.000781007     -1262.827758295     -1258.942758681        12.131584033
       114          114.000000         3.867453320       301.765186677     -1262.885209425     -1258.925518753        12.146165341
       115          115.000000         3.873197964       302.213423122     -1262.893688989     -1258.927426777        12.753490821
       116          116.000000         3.803494624       296.774691314     -1262.715591432     -1258.818206947        12.170382727
       117          117.000000         3.830871629       298.910832638     -1262.773809109     -1258.848230570        12.807208098
       118          118.000000         3.860540168       301.225775174     -1262.812827613     -1258.856758291        12.136085983
       119          119.000000         3.873759039       302.257202031     -1262.848386259     -1258.878266625        12.189740360
       120          120.000000         3.843298541       299.880465450     -1262.821599869     -1258.881104544        12.165804356
       121          121.000000         3.777741919       294.765288968     -1262.767888572     -1258.892123331        12.179630835
       122          122.000000         3.839283439       299.567179649     -1262.892300305     -1258.954175678        12.136452865
       123          123.000000         3.897312864       304.095032733     -1262.916292089     -1258.919306536        12.191250488
       124          124.000000         3.877433544       302.543912051     -1262.885859746     -1258.907907260        12.155796107
       125          125.000000         3.863440668       301.452092057     -1262.867222458     -1258.902411491        12.206242915
       126          126.000000         3.839877867       299.613561005     -1262.834641295     -1258.892540302        12.177878972
       127          127.000000         3.889432415       303.480146105     -1262.873794897     -1258.881280645        12.188448906
       128          128.000000         3.915287410       305.497529873     -1262.918119408     -1258.898872399        12.132200237
       129          129.000000         3.830702774       298.897657451     -1262.805144512     -1258.869597342        12.160149273
       130          130.000000         3.828258357       298.706927258     -1262.826535991     -1258.892556852        12.195037115
       131          131.000000         3.871601725       302.088873580     -1262.874530365     -1258.896326644        12.125550836
       132          132.000000         3.891990804       303.679769158     -1262.878167029     -1258.878678524        12.163806051
       133          133.000000         3.887934383       303.363259396     -1262.892248336     -1258.895907325        12.140914585
       134          134.000000         3.800475901       296.539149866     -1262.790088161     -1258.880298423        12.145920802
       135          135.000000         3.794288964       296.056402707     -1262.820818003     -1258.916323346        12.160037745
       136          136.000000         3.854606669       300.762802978     -1262.892852501     -1258.927147868        12.134396441
       137          137.000000         3.829163040       298.777516879     -1262.854577376     -1258.913417725        12.186112866
       138          138.000000         3.803709884       296.791487339     -1262.818774801     -1258.902176213        12.828646261
       139          139.000000         3.792477030       295.915023220     -1262.808458187     -1258.902209909        12.135303229
       140          140.000000         3.816643269       297.800638591     -1262.820518617     -1258.889227026        12.120266687
       141          141.000000         3.863142700       301.428842596     -1262.884771374     -1258.906097638        12.144187462
       142          142.000000         3.796222425       296.207264550     -1262.807062282     -1258.894425050        12.149487626
       143          143.000000         3.753085213       292.841403902     -1262.745493131     -1258.875128413        12.120302979
       144          144.000000         3.798183184       296.360256415     -1262.822626312     -1258.906312012        12.180779893
       145          145.000000         3.824048343       298.378433150     -1262.843108257     -1258.900076299        12.140761938
       146          146.000000         3.851098632       300.489081891     -1262.907320541     -1258.936381351        12.807630900
       147          147.000000         3.809960132       297.279174477     -1262.860038160     -1258.929379879        12.143689971
       148          148.000000         3.786094410       295.417007488     -1262.830320372     -1258.922681270        12.107135318
       149          149.000000         3.842447704       299.814077281     -1262.884521107     -1258.919685506        12.151502822
       150          150.000000         3.826386661       298.560884721     -1262.826144471     -1258.876521770        12.105702989
       151          151.000000         3.796427197       296.223242288     -1262.782488141     -1258.861983060        12.151947938
       152          152.000000         3.793219675       295.972969424     -1262.764907028     -1258.846777384        12.129787847
       153          153.000000         3.810153758       297.294282518     -1262.753256564     -1258.817366131        12.166020986
       154          154.000000         3.867485906       301.767729237     -1262.866204757     -1258.872150419        12.141932935
       155          155.000000         3.830734802       298.900156475     -1262.854418438     -1258.896276101        12.164806880
       156          156.000000         3.771456331       294.274844340     -1262.782947766     -1258.883255627        12.764449801
       157          157.000000         3.792418163       295.910429996     -1262.793112241     -1258.871643671        12.126827136
       158          158.000000         3.792448317       295.912782814     -1262.823013864     -1258.900706125        12.802822649
       159          159.000000         3.791617343       295.847944517     -1262.839710041     -1258.917431670        12.125500493
       160          160.000000         3.767708915       293.982445256     -1262.816470810     -1258.917309855        12.134402256
       161          161.000000         3.744291775       292.155279686     -1262.778867489     -1258.902349621        12.181133192
       162          162.000000         3.808619709       297.174585551     -1262.877801523     -1258.936192018        12.162693489
       163          163.000000         3.809151052       297.216044577     -1262.895474076     -1258.952568589        12.124393389
       164          164.000000         3.747311837       292.390925596     -1262.847003539     -1258.965184179        12.124355469
       165          165.000000         3.732180972       291.210311891     -1262.815953487     -1258.948534300        12.167394772
       166          166.000000         3.734763058       291.411783954     -1262.853544268     -1258.982831882        12.811264552
       167          167.000000         3.779240667       294.882231547     -1262.889934702     -1258.974046501        12.820696712
       168          168.000000         3.788418993       295.598387349     -1262.919851846     -1258.994092744        12.782799818
       169          169.000000         3.741262382       291.918905729     -1262.869229653     -1258.989947304        12.160144899
       170          170.000000         3.763910077       293.686033964     -1262.916184460     -1259.013592151        12.802715261
       171          171.000000         3.786240785       295.428428653     -1262.960877028     -1259.035300479        12.845643267
       172          172.000000         3.770420670       294.194034956     -1262.958293124     -1259.047891814        12.786784519
       173          173.000000         3.752037949       292.759689234     -1262.909156617     -1259.016507454        12.826628115
       174          174.000000         3.732499243       291.235145581     -1262.871167725     -1258.997444731        12.800653577
       175          175.000000         3.788771955       295.625927877     -1262.928527352     -1258.997933016        12.812192038
       176          176.000000         3.816098103       297.758101003     -1262.932603069     -1258.974085794        12.788678259
       177          177.000000         3.769040308       294.086329640     -1262.874464398     -1258.962413827        12.834299337
       178          178.000000         3.764792140       293.754858497     -1262.861599684     -1258.953220640        12.153289918
       179          179.000000         3.764149236       293.704694782     -1262.842357717     -1258.934057520        12.177730933
       180          180.000000         3.787713114       295.543309876     -1262.860042461     -1258.927624473        12.168606050
       181          181.000000         3.801830526       296.644846978     -1262.871864508     -1258.924780489        12.136756305
       182          182.000000         3.752539620       292.798832990     -1262.797725141     -1258.899392463        12.172960486
       183          183.000000         3.779204230       294.879388430     -1262.829889862     -1258.904367375        12.188938320
       184          184.000000         3.844480364       299.972679333     -1262.910261608     -1258.918939877        12.217430584
       185          185.000000         3.858130920       301.037789182     -1262.933868090     -1258.928364967        12.152038086
       186          186.000000         3.852479376       300.596817061     -1262.933248586     -1258.932859642        12.181683376
       187          187.000000         3.823346082       298.323638004     -1262.907522085     -1258.935726635        12.155939013
       188          188.000000         3.842678220       299.832063768     -1262.927261951     -1258.935594287        12.168815348
       189          189.000000         3.888003204       303.368629341     -1262.982338875     -1258.944797175        12.182590507
       190          190.000000         3.862100045       301.347487480     -1262.935862571     -1258.923662338        12.146125741
       191          191.000000         3.855594723       300.839897704     -1262.955369116     -1258.949106357        12.193929110
       192          192.000000         3.872671526       302.172346806     -1262.988316356     -1258.964400677        12.162072800
       193          193.000000         3.880508716       302.783858021     -1262.989860941     -1258.957519787        12.147378951
       194          194.000000         3.888055568       303.372715082     -1262.975522415     -1258.935032595        12.824685290
       195          195.000000         3.844293983       299.958136642     -1262.898019198     -1258.900679194        12.177834090
       196          196.000000         3.839276693       299.566653279     -1262.912450155     -1258.919513109        12.159957353
       197          197.000000         3.872679483       302.172967648     -1262.968764464     -1258.941802417        12.153155357
       198          198.000000         3.843747485       299.915495104     -1262.899302624     -1258.900640034        12.134201728
       199          199.000000         3.822208915       298.234908384     -1262.905403237     -1258.927644702        12.802212499
       200          200.000000         3.810475204       297.319363980     -1262.893505163     -1258.926846535        12.789507974
       201          201.000000         3.814683609       297.647732525     -1262.892366491     -1258.920866269        12.986900382
       202          202.000000         3.846889044       300.160621055     -1262.995698506     -1258.991355336        12.823332570
       203          203.000000         3.806926650       297.042481435     -1262.902386040     -1258.937363008        12.785087928
       204          204.000000         3.785758204       295.390774370     -1262.877699582     -1258.933207976        12.779895075
       205          205.000000         3.826564395       298.574752800     -1262.899495470     -1258.913562115        12.179367699
       206          206.000000         3.843494808       299.895779524     -1262.946138225     -1258.942631059        12.779074758
       207          207.000000         3.848410272       300.279317690     -1262.951756065     -1258.942681280        12.808256246
       208          208.000000         3.809152874       297.216186682     -1262.972736414     -1259.002262469        12.779767208
       209          209.000000         3.800552293       296.545110473     -1262.944266838     -1258.981739440        12.813894108
       210          210.000000         3.860908908       301.254546815     -1262.979378203     -1258.955834699        12.780217201
       211          211.000000         3.855724920       300.850056573     -1262.928668801     -1258.909635077        12.130853649
       212          212.000000         3.818685265       297.959969115     -1262.894138123     -1258.911463501        12.782290246
       213          213.000000         3.806177060       296.983993325     -1262.854811604     -1258.883964721        12.167136103
       214          214.000000         3.818496631       297.945250612     -1262.864821128     -1258.880972184        12.135029908
       215          215.000000         3.864354241       301.523375320     -1262.984009082     -1258.953609860        12.114245940
       216          216.000000         3.845026965       300.015328889     -1263.015799106     -1259.004020121        12.764924508
       217          217.000000         3.792315699       295.902435055     -1262.984959132     -1259.025181795        12.768206857
       218          218.000000         3.808142162       297.137324062     -1263.014099613     -1259.037788109        12.784707405
       219          219.000000         3.827489725       298.646953362     -1263.019287479     -1259.022914172        12.770109177
       220          220.000000         3.819269628       298.005565138     -1262.990058182     -1259.001183084        12.811873797
       221          221.000000         3.776199939       294.644973134     -1262.945017617     -1258.998490106        12.796706695
       222          222.000000         3.741610110       291.946037851     -1262.919259616     -1259.006609340        12.766028650
       223          223.000000         3.795163752       296.124659651     -1262.991533511     -1259.024622064        12.789405476
       224          224.000000         3.824727259       298.431406850     -1263.011046855     -1259.013855500        12.773330908
       225          225.000000         3.797486842       296.305923015     -1263.018321886     -1259.047647954        12.795394227
       226          226.000000         3.783129245       295.185645015     -1263.003735325     -1259.046696955        12.769602276
       227          227.000000         3.779139118       294.874308003     -1262.995468420     -1259.041699567        12.752156787