    2699
 i =        0, time =        0.000, E =     -1262.9054469071
  C        13.2723620000       12.9763330000        9.8548230000
  O        12.6854340000       13.7623000000        9.1232490000
  O        11.3247750000       11.3906560000        9.5030700000
  N        14.0826180000       11.9821640000        9.4339870000
  H        11.8368330000       10.5026890000        9.6252980000
  H        14.0681780000       11.8391390000        8.4393860000
  H        15.0661940000       12.1115940000        9.6329220000
  N        12.9672450000       12.9952830000       11.2998680000
  H        10.6880620000       11.4353310000        8.7875230000
  H        11.9928890000       13.2800330000       11.3350060000
  H        12.9106660000       12.0918490000       11.6972940000
  O        28.5652690000       16.3946360000       -0.4221990000
  H        28.0999550000       16.9715370000        0.2664920000
  H        28.0780600000       16.7033020000       -1.2068480000
  O         2.2311440000       16.6985400000        1.9063100000
  H         2.9398140000       16.8093430000        2.5722950000
  H         1.4360460000       16.9481450000        2.4720830000
  O         0.5750950000       10.8802810000      -12.0911570000
  H        -0.1672760000       11.2245570000      -11.5583140000
  H         1.0585790000       11.6912060000      -12.3467040000
  O        26.2762360000       22.6221810000       -5.0572740000
  H        25.6760390000       23.1538180000       -4.5312950000
  H        25.7263410000       22.4989760000       -5.8487150000
  O        23.2776200000        7.9276540000        9.6906740000
  H        22.7730370000        7.7800770000       10.5034510000
  H        23.9771580000        7.2303570000        9.7739110000
  O        19.8177130000       -2.7857340000        6.3070050000
  H        19.0272180000       -3.0367860000        6.7795940000
  H        19.6827030000       -1.8066530000        6.3132060000
  O        -3.9477190000       21.0194950000       -4.2042530000
  H        -4.8095420000       21.4281200000       -4.4228680000
  H        -3.5438030000       21.8465840000       -3.8428760000
  O        -1.3062860000        8.6459820000       -4.0590650000
  H        -0.4026740000        9.1032770000       -4.0344940000
  H        -1.7316220000        9.2224340000       -3.3663740000
  O        24.0486300000        5.0294310000        0.9017050000
  H        23.4088650000        5.0228050000        0.1140730000
  H        24.6506540000        5.7311380000        0.6305450000
  O        16.9574910000       24.7763540000       -2.5069870000
  H        16.9232980000       25.2647590000       -1.6749940000
  H        17.5450230000       25.3486160000       -3.0845640000
  O         0.1732430000       10.2345120000        3.1861580000
  H        -0.6056150000       10.1674300000        2.5674670000
  H         0.7633840000        9.5792920000        2.6275910000
  O         5.8856280000       16.9122510000      -11.3230180000
  H         6.7602550000       17.3723370000      -11.3712830000
  H         5.3465190000       17.6375270000      -10.8822780000
  O        17.3507310000        1.5949190000       -4.8928560000
  H        16.5978320000        2.1811430000       -5.1769360000
  H        17.9456650000        2.1986930000       -4.4720520000
  O         2.8906080000        1.6239740000       -8.2078600000
  H         2.7536840000        0.7736580000       -8.7158760000
  H         1.9739470000        1.8704680000       -8.0212280000
  O        20.1413990000       -3.6653150000       -5.0011850000
  H        20.5787220000       -2.9097240000       -4.6147370000
  H        20.0307140000       -3.3164390000       -5.9133720000
  O        11.0048930000       -1.7891900000       -9.6051560000
  H        11.1864140000       -2.2438340000      -10.4386770000
  H        11.0635100000       -0.8801660000       -9.9417220000
  O        -5.2372850000       21.1651860000        0.1465770000
  H        -6.0835110000       21.6202980000        0.3526200000
  H        -4.6546210000       21.5421600000        0.8305420000
  O        23.8690430000       -4.6568080000       -6.4415820000
  H        23.0114150000       -5.1255660000       -6.5430140000
  H        23.9403380000       -4.3236100000       -7.3800320000
  O        17.2236100000       26.9706750000       -9.6525460000
  H        16.3741570000       26.5205800000       -9.6844650000
  H        16.9235460000       27.9018710000       -9.7219910000
  O        19.6474110000       12.6893200000      -10.3549640000
  H        20.1764030000       13.3372520000       -9.9333360000
  H        18.8316630000       13.2040850000      -10.5186840000
  O         7.7788960000       15.3979620000      -15.1136290000
  H         8.7006640000       15.2733350000      -15.4499270000
  H         7.8290960000       16.2923430000      -14.7648710000
  O        19.0423280000       24.5560000000      -13.4951030000
  H        19.4657150000       24.8947890000      -12.6862890000
  H        19.7487640000       24.1171630000      -13.9748630000
  O        19.7226640000        4.6196460000       -9.1003700000
  H        19.9718250000        3.9233870000       -9.7544160000
  H        20.0606020000        4.0868360000       -8.3032120000
  O        21.5624680000        0.8552870000       -9.1298400000
  H        21.2648110000        1.1340390000       -8.2372000000
  H        20.9522000000        1.4498820000       -9.6779390000
  O         0.0418530000        8.4109240000       -8.8405920000
  H        -0.3078950000        9.3339030000       -8.8722730000
  H        -0.4939620000        8.0616980000       -8.0879840000
  O        20.6275100000       11.7161520000       -0.8951060000
  H        20.9555400000       12.6402480000       -0.8592640000
  H        21.3240180000       11.3046900000       -1.4292810000
  O        15.4223980000        7.2573950000        1.9575290000
  H        15.9465840000        8.0646080000        1.7173590000
  H        14.6272430000        7.3677080000        1.4022340000
  O        -3.0672850000       26.0960500000       -2.9305340000
  H        -3.0315700000       25.1416130000       -2.8346660000
  H        -2.2027870000       26.3147180000       -3.3481990000
  O        25.6366900000        9.5109860000      -13.0306430000
  H        24.7864670000        9.6132250000      -13.5459210000
  H        25.6131110000       10.4118370000      -12.6026730000
  O        13.2661290000        3.8351560000       -7.2583260000
  H        13.7702080000        3.3314240000       -7.8564650000
  H        13.2818570000        4.7415540000       -7.6758080000
  O        21.8673950000       -1.6669920000        1.9348200000
  H        22.7218320000       -1.1964230000        2.1928410000
  H        21.9883940000       -1.5951110000        0.9677380000
  O        -0.8481670000       11.0394890000       -9.4114270000
  H        -0.9359610000       11.5304720000       -8.6094160000
  H        -1.7907570000       10.8754430000       -9.6619160000
  O        27.9802590000       -2.6704020000        5.3728190000
  H        27.6125910000       -3.4269110000        4.8249280000
  H        27.9382880000       28.9400960000        6.2591930000
  O         0.5190500000       -4.7602390000        3.6165380000
  H         1.4893430000       -4.9801710000        3.5723440000
  H         0.2972080000       -5.3167970000        4.4302050000
  O         3.3411370000        3.4203750000       -0.6046240000
  H         4.1791390000        3.6640050000       -0.9567600000
  H         2.7900990000        4.2156410000       -0.7228650000
  O         9.8114780000       -4.4122900000      -14.0466860000
  H         9.4762760000       -5.3155300000      -14.2957960000
  H         9.1022390000       -4.1378410000      -13.4526840000
  O        24.9909130000       16.5556680000        6.2368600000
  H        25.6625230000       16.2147180000        5.6500800000
  H        25.4971980000       17.2069360000        6.7858040000
  O        21.7603280000        5.7194820000       -0.5631560000
  H        21.8948650000        6.4113190000        0.1342220000
  H        21.1152780000        6.1355300000       -1.0916260000
  O        19.8769510000        7.0455230000       -1.9689300000
  H        19.0608810000        7.2931340000       -2.4013840000
  H        20.4791430000        6.9719710000       -2.7061990000
  O         4.1728760000        4.3569290000      -13.4146260000
  H         4.7823960000        4.8071540000      -14.0436530000
  H         3.6257110000        5.1517740000      -13.2264470000
  O         9.5931500000        3.2814270000        2.9291940000
  H        10.1238700000        3.6893670000        3.6096080000
  H         8.7253000000        3.7311130000        3.0558980000
  O         8.7445780000        3.1269790000       -1.5196780000
  H         9.3666830000        2.6489830000       -0.9730960000
  H         9.1999100000        3.9640720000       -1.6907840000
  O         7.0074660000        5.4790270000      -11.2696170000
  H         6.9799970000        6.2533270000      -11.8914720000
  H         6.2470570000        5.7098320000      -10.7562080000
  O        26.7422140000        2.4300430000       -1.5183230000
  H        27.1027950000        1.8046670000       -2.2000980000
  H        26.9490550000        3.2620880000       -2.0127890000
  O        13.3700690000       11.8300180000        0.7957090000
  H        13.0908250000       12.5769000000        0.2190190000
  H        12.7434630000       11.1140580000        0.5453640000
  O         5.5369560000       10.9494550000      -10.1465140000
  H         5.9970070000       11.6459240000      -10.6250370000
  H         4.6291080000       11.3434590000      -10.1326790000
  O        10.6377990000       15.6216000000      -11.1739270000
  H        11.0831090000       16.4727880000      -10.9589660000
  H         9.8412280000       15.6543190000      -10.6106170000
  O        28.1314640000        1.7104260000        3.5522680000
  H        29.0795020000        1.8668430000        3.4227740000
  H        27.8653110000        2.6685820000        3.7288420000
  O        18.8388020000        9.4109340000        8.0124860000
  H        19.8281040000        9.4108660000        8.0961480000
  H        18.7331750000        8.4562360000        8.2703300000
  O         7.8548080000       -3.7767970000      -11.9158080000
  H         7.1064290000       -4.0616460000      -12.3772500000
  H         7.7620660000       -4.1211910000      -11.0207620000
  O        16.8660110000       14.6350500000       -1.6792890000
  H        16.3693080000       14.1837850000       -0.9938000000
  H        16.3787960000       15.4500640000       -1.7395270000
  O         3.6129310000        7.5284100000       10.0473300000
  H         3.9814080000        7.1631260000        9.2581290000
  H         3.7073250000        6.8243910000       10.7193160000
  O         7.3718060000       18.5521260000        3.4586220000
  H         7.2718980000       17.7955170000        4.0172860000
  H         6.8633880000       19.2283100000        3.9757980000
  O         2.3314960000       29.4878160000       -3.2452930000
  H         1.4881330000       29.9138760000       -3.2454410000
  H         2.4768220000       29.2251550000       -2.2889190000
  O        10.5149820000        0.6562450000      -10.6787540000
  H         9.6529650000        1.1158660000      -10.5010450000
  H        10.4908000000        0.5112930000      -11.5663060000
  O        14.0530030000       20.7251260000        8.5752930000
  H        13.8591500000       19.8933790000        9.0487820000
  H        14.3396280000       20.4705520000        7.7071640000
  O         3.9815910000       -0.4256630000        7.1654520000
  H         3.0169410000       -0.3493440000        7.1159670000
  H         4.1683900000        0.5483960000        7.3243470000
  O        18.3229870000       -2.2440880000      -14.6888160000
  H        19.1577630000       -1.9170030000      -14.9836270000
  H        18.2558920000       -3.1057780000      -15.1182920000
  O        28.7701700000       21.7504730000      -12.3758840000
  H        29.3020800000       22.0172770000      -11.5824630000
  H        27.8988210000       22.1662850000      -12.1486000000
  O        -1.5302690000       -3.8579340000        7.1202640000
  H        -0.6806650000       28.5904790000        7.0992340000
  H        -2.0776870000       -3.3622310000        6.4703520000
  O         1.9391560000       18.0885810000       -4.1395250000
  H         2.7510340000       18.6215130000       -4.3520570000
  H         1.7020810000       18.4620590000       -3.2713220000
  O        23.0505330000       17.9264620000        5.0489380000
  H        23.4875130000       18.6081710000        5.6919100000
  H        23.7160910000       17.2137970000        5.1430420000
  O         6.9021550000        5.9590060000        0.4801930000
  H         5.8877650000        6.0807910000        0.6193470000
  H         6.9617820000        5.4802500000       -0.3493160000
  O        28.0720330000        6.5923200000       10.2997880000
  H        27.8064460000        7.5401410000       10.2515540000
  H        28.7522140000        6.6607420000       11.0154710000
  O         4.5302100000       -0.3098450000       -0.8972480000
  H         3.6289860000       -0.0246830000       -1.1075910000
  H         4.9662000000        0.0043330000       -1.7405100000
  O        17.3951490000       20.0080410000        2.7295290000
  H        16.5593640000       20.6451400000        2.8580760000
  H        17.9997220000       20.5451580000        3.2965380000
  O        21.9953730000       26.0413490000       -2.0847080000
  H        21.3536800000       26.7632680000       -2.0865750000
  H        22.7008320000       26.3320010000       -1.4940260000
  O        17.3799420000        7.7541050000       -3.2969780000
  H        17.7074810000        8.5385170000       -3.8393860000
  H        17.1454320000        8.2664560000       -2.5159240000
  O        10.9388600000       -1.2461920000       10.1975050000
  H        10.8188820000       -0.5714250000       10.8895370000
  H        11.7876200000       -1.6335420000       10.4774410000
  O         1.5926360000       20.1966820000        8.8307810000
  H         1.1231480000       20.6804410000        8.1526890000
  H         1.8590780000       20.9021800000        9.5015560000
  O        -4.3053030000       -0.2039200000        0.6274970000
  H        -3.7898810000        0.6043630000        0.6139690000
  H        -3.8274120000       -0.8133100000        0.0236890000
  O         7.4141940000        7.8452190000      -12.9858140000
  H         7.7189170000        8.3187100000      -12.2017300000
  H         8.2294050000        7.8415120000      -13.5328320000
  O         1.1354230000       -6.1100330000       -5.7857450000
  H         0.2643250000       -5.8016070000       -6.0433180000
  H         0.8843950000       -6.9031850000       -5.2244460000
  O        27.9597240000       17.1701680000      -11.1286460000
  H        27.5486200000       16.3246960000      -10.9878960000
  H        27.6651360000       17.7728500000      -10.4657290000
  O        12.8477640000       10.1611470000        4.0395040000
  H        12.8528650000       10.2691980000        3.1036910000
  H        12.4926010000        9.2844520000        4.3326050000
  O        11.8613580000        8.1849830000       -1.7441300000
  H        11.0757370000        8.7058490000       -1.7083740000
  H        12.5418420000        8.8487130000       -2.0512990000
  O         4.6236810000       16.0899310000      -13.8260370000
  H         5.0132130000       16.5201610000      -13.0449440000
  H         4.2293640000       16.8442000000      -14.2995980000
  O        19.9630640000       -2.8286170000       -7.5629490000
  H        20.3107870000       -3.4249670000       -8.2525570000
  H        19.4842210000       -2.1607550000       -8.1388220000
  O        21.7688640000        6.0126450000      -14.5175140000
  H        21.3559820000        6.2970000000      -13.6565550000
  H        21.5455020000        6.8135560000      -15.0325320000
  O         9.2788060000       18.8442100000       -1.0186330000
  H        10.1577840000       18.9623790000       -0.5720850000
  H         9.1648020000       17.8919200000       -0.8592480000
  O        26.4148810000       -2.7942720000      -11.6398990000
  H        25.7011300000       -2.3317990000      -12.1491820000
  H        26.9440210000       -3.1192540000      -12.3624490000
  O        11.9875140000       18.7024230000       -7.8204100000
  H        11.6019590000       18.6999550000       -8.6850160000
  H        11.6894960000       19.5326650000       -7.4284740000
  O        16.0844170000       10.4975580000        7.4004390000
  H        15.6585010000        9.6531470000        7.1306010000
  H        17.0260890000       10.3983280000        7.5653580000
  O         6.1315940000       14.7405830000        6.2175280000
  H         5.6817260000       13.9522810000        6.6055010000
  H         5.6953820000       15.4664710000        6.6187260000
  O         9.7577300000        1.3050720000        4.9918460000
  H         9.5666880000        1.1891310000        4.0420880000
  H         8.8628160000        1.6012620000        5.3275990000
  O        19.0644870000       11.7231080000        5.7742450000
  H        19.1445030000       10.9680020000        6.3750470000
  H        20.0053560000       11.7641910000        5.3980050000
  O        27.8338970000       21.3686540000        8.4698710000
  H        27.0413170000       21.8994810000        8.4395030000
  H        28.4998570000       22.0096820000        8.8031420000
  O         7.7679710000        6.4318090000       -2.1936760000
  H         7.1459980000        7.1739760000       -2.3006300000
  H         7.4044670000        5.7738230000       -2.9073510000
  O         1.2339170000       -1.5754130000        7.1141710000
  H         0.6797230000       -0.8830940000        6.6997440000
  H         1.2476570000       -1.2981250000        8.0924290000
  O        -0.1089760000        0.1407010000        5.7798830000
  H        -1.0146900000       -0.0553700000        5.4450560000
  H        -0.2072170000        1.1085020000        5.8450190000
  O         7.3460510000       -1.5410720000        3.6116300000
  H         6.4376410000       -1.8650130000        3.4593440000
  H         7.3478200000       -0.6629820000        3.1543100000
  O        15.3386060000       15.7985380000        5.1516690000
  H        16.2695600000       15.4639460000        5.3647580000
  H        14.9601890000       15.0094580000        4.6183280000
  O        21.5369850000       22.8766570000      -13.8395910000
  H        20.8235050000       22.2380030000      -13.6508780000
  H        21.9987450000       22.5272430000      -14.5879900000
  O         7.5049520000        4.2121150000       -7.9769800000
  H         6.5703430000        3.9337030000       -8.2189260000
  H         7.3652520000        5.1546130000       -7.7720870000
  O        10.0753360000       29.3061240000       -5.6028730000
  H         9.5475400000       -2.2356810000       -4.9338680000
  H        10.4386940000       30.0951040000       -6.0405740000
  O        13.7162940000       20.9144080000       -2.0560320000
  H        13.5725530000       21.8616100000       -2.2748770000
  H        14.4341750000       21.0438920000       -1.4210090000
  O         7.1468420000        1.2691320000        8.6450060000
  H         6.3334870000        0.9980710000        8.1665940000
  H         7.4706200000        1.9403390000        7.9836320000
  O        20.2541430000       -4.4443840000        2.9661080000
  H        20.5175300000       -3.9012010000        3.7405390000
  H        19.7240390000       28.1997360000        2.4391480000
  O         1.4149300000       12.7366670000        3.0602870000
  H         0.7560600000       12.0239200000        3.2279750000
  H         1.6192800000       12.8920270000        4.0578070000
  O         1.6704840000        2.9149390000       -4.7824060000
  H         1.0524010000        3.6229640000       -5.1599740000
  H         2.5172380000        3.2033270000       -5.1240420000
  O        15.1648940000        7.8299200000        7.1990740000
  H        15.7087100000        7.0157740000        7.5690310000
  H        14.8672150000        7.7049690000        6.2875790000
  O        15.7456320000        8.8426790000      -10.9692320000
  H        14.8521630000        8.7102370000      -10.5499050000
  H        15.7593900000        9.7799850000      -11.0587650000
  O         2.2871370000       17.3681580000      -12.7310880000
  H         2.5235450000       16.7967010000      -11.9676140000
  H         1.3271030000       17.0884530000      -12.8589390000
  O        19.2009560000        3.6713730000        1.0627060000
  H        19.1112460000        4.6328210000        1.1702990000
  H        19.2593860000        3.5559460000        0.1117010000
  O         7.5792920000       -1.0517300000        0.0243070000
  H         7.6529830000       -0.6673010000       -0.8636770000
  H         7.6098140000       -0.2069690000        0.5687380000
  O        15.5454990000        1.4824850000        8.8798710000
  H        15.0171180000        0.7671580000        8.4601110000
  H        16.4415210000        1.2722550000        8.5428390000
  O         5.5625000000       19.4563980000        1.5303220000
  H         6.2846920000       19.2622240000        2.1995970000
  H         6.0909120000       19.9315990000        0.8808380000
  O         5.1473230000       20.5777260000        9.2128540000
  H         5.8990110000       21.1709630000        9.2893030000
  H         5.5658420000       19.7115760000        9.1587090000
  O        10.5502870000       -0.1755600000       -6.6908570000
  H        10.7209720000       -0.3255200000       -7.6416340000
  H         9.7752370000        0.4229430000       -6.8224880000
  O         1.9200080000       31.1965310000        1.2319370000
  H         1.0840010000       -1.1108310000        1.7044120000
  H         1.5371690000       -0.0873720000        0.6737350000
  O         2.1978110000       18.3895930000       -8.8513190000
  H         1.6933390000       18.8093530000       -9.5445180000
  H         1.6717810000       18.5496560000       -8.0558510000
  O        -3.5278440000       -5.1980770000        3.7336400000
  H        -3.7292880000       -5.8294020000        4.4671020000
  H        -4.4258700000       -5.3249000000        3.2581880000
  O         9.0365900000        6.2522520000      -14.5703190000
  H         9.7079310000        5.9469180000      -13.9212940000
  H         9.5593110000        6.9204860000      -15.0359930000
  O        16.3447130000       -2.4404640000       -4.8685400000
  H        15.9272780000       -1.9243070000       -5.5870000000
  H        16.5023990000       -1.7540790000       -4.1958820000
  O        10.7161760000        5.1841590000       -5.2007380000
  H        10.3911440000        6.0303530000       -5.5632410000
  H        10.3922790000        5.2830420000       -4.2981300000
  O        11.2505430000        8.1573970000       12.6339140000
  H        11.0692120000        7.2329730000       12.2583260000
  H        12.0976040000        8.4806410000       12.1656570000
  O        20.5733430000       -7.0011850000        2.0108010000
  H        20.3812560000       25.8817710000        2.4408420000
  H        19.6614970000       -7.1962000000        1.6907300000
  O        -1.8971760000        4.6988840000       -1.5249940000
  H        -1.4033870000        5.3237630000       -2.0656400000
  H        -2.7426170000        4.7491230000       -2.0541160000
  O        22.2590010000       23.7957290000       -6.6591450000
  H        22.4865170000       23.6979140000       -5.7651150000
  H        21.7297740000       24.6974410000       -6.5423880000
  O        -6.2390940000       -3.4407370000        0.6015050000
  H        -5.9540740000       -3.2690580000        1.5426420000
  H        -5.5404290000       -3.0594990000        0.0621490000
  O         7.0919470000        4.1158870000        2.8077060000
  H         7.2078000000        4.5703110000        1.9780440000
  H         6.1669180000        4.2026770000        3.0203280000
  O        29.2675320000       -0.4037760000        5.2163290000
  H        28.7214620000       -1.2472200000        5.2190800000
  H        28.7439750000        0.1131310000        4.5269760000
  O        20.0205570000       11.4091240000        9.9761130000
  H        19.3540480000       11.2252210000        9.3144880000
  H        19.8617550000       10.6474140000       10.6638570000
  O        -2.5118840000       12.0762730000        0.4061440000
  H        -3.3474710000       12.5427580000        0.2401500000
  H        -1.8686010000       12.7991210000        0.4114390000
  O         9.1095640000       14.1465400000        3.2683730000
  H         9.5710900000       13.6023550000        3.9809570000
  H         8.8431320000       13.4606360000        2.5664040000
  O         6.4169090000       23.2598760000       -6.1180170000
  H         6.9422290000       23.8808710000       -5.5624970000
  H         5.5439680000       23.7046360000       -6.0804150000
  O        29.7859900000       25.6452830000       -9.5279860000
  H        28.9845310000       25.4781820000       -8.9818010000
  H        -2.3042320000       26.5568850000       -9.7334200000
  O        -1.2304460000       27.0659370000       -6.4454970000
  H        -1.2448800000       27.8649600000       -7.0030520000
  H        -2.0402580000       26.6549640000       -6.6991320000
  O        -7.9787640000        0.7457720000        2.6342030000
  H        -7.1595720000        0.6496110000        3.1338550000
  H        -7.6421530000        1.1774970000        1.8003840000
  O        12.1155760000        2.7951060000       -4.8343340000
  H        11.5819300000        3.5944700000       -4.9044350000
  H        12.3867350000        2.7250320000       -5.7827540000
  O        13.8307930000       23.7460040000      -12.6543340000
  H        13.7655530000       24.7096460000      -12.5793720000
  H        14.8226750000       23.6653770000      -12.8777690000
  O        11.1812080000       10.3354850000        0.3682260000
  H        10.5407300000       10.6573980000        1.0333920000
  H        10.6934230000       10.5715170000       -0.4735050000
  O        -9.4645920000       32.2970540000        9.1467790000
  H        -8.8773160000       32.4433940000        8.3384940000
  H        -8.8039750000       32.0104330000        9.8037500000
  O         4.8820420000       25.0571750000        5.3772890000
  H         5.0263050000       24.2607570000        5.8905060000
  H         5.8808660000       25.2273900000        5.1627440000
  O        24.6965080000       -2.1886520000      -13.6514040000
  H        23.8602290000       -2.5225240000      -13.2006330000
  H        24.9147360000       -2.8650070000      -14.2778640000
  O         0.7682020000       13.9334080000       -6.6725660000
  H         1.7042050000       14.2887460000       -6.7995180000
  H         0.6330000000       13.9762360000       -5.7471590000
  O        20.6052380000       12.2370000000       -4.2703780000
  H        20.8198890000       13.1655490000       -4.2388820000
  H        20.0989150000       12.1890060000       -5.1273990000
  O        18.8646320000        3.0744760000      -12.9186150000
  H        18.4544600000        3.9435970000      -12.5586980000
  H        18.1021100000        2.5138850000      -12.7273470000
  O        21.2673910000       -4.1635790000       -9.5326260000
  H        22.2171310000       -3.9853270000       -9.2648380000
  H        21.1677210000       -3.5227160000      -10.2740150000
  O        11.3158660000        5.4173170000       11.4555420000
  H        10.6548080000        4.6834260000       11.3269430000
  H        12.0251910000        4.9403300000       11.9050230000
  O        19.7346210000       21.3876480000       -6.7756720000
  H        19.5454980000       20.7758180000       -7.4941620000
  H        19.4941710000       22.2318590000       -7.1794920000
  O        16.1449990000       17.3112390000       -8.6162000000
  H        15.3114090000       16.8502040000       -8.3177270000
  H        16.0633960000       18.2043530000       -8.1944960000
  O        14.5675400000        7.0225610000       12.6142640000
  H        14.3963680000        6.2447790000       13.2317510000
  H        14.2606100000        6.7339770000       11.8072560000
  O        26.7410220000        8.9482220000        1.6385830000
  H        26.9926820000        9.1534930000        0.7079330000
  H        26.1109600000        9.7031900000        1.8252690000
  O         6.4617120000       -4.6645800000       -3.7494730000
  H         6.0069070000       -3.8278140000       -3.6268430000
  H         6.6536320000       -4.9091950000       -2.7821290000
  O        -1.5747370000       16.4338110000        1.8905950000
  H        -1.6339660000       17.3747250000        1.5306070000
  H        -2.2899820000       16.0027680000        1.3415390000
  O        10.3712280000        2.0993630000        0.3490630000
  H        11.0697100000        2.5905850000       -0.0438920000
  H        10.1820560000        2.6701790000        1.1461420000
  O         7.1245920000       16.3539070000       -7.1986640000
  H         7.6114800000       17.1402070000       -7.0432210000
  H         6.1898000000       16.7101170000       -7.0603630000
  O        14.3543200000       13.7476140000        3.6448650000
  H        14.4378510000       12.9569120000        4.3294650000
  H        15.1962980000       13.7494870000        3.1623910000
  O        11.4188700000       12.8495560000      -11.3648070000
  H        11.3738500000       13.8214430000      -11.3144550000