#     Step Nr.          Time[fs]        Kin.[a.u.]          Temp[K]            Pot.[a.u.]  
         0            0.000000         3.844830508       300.000000000     -1263.096099665 
         1            1.000000         4.233411521       330.319751076     -1263.684805493 
         2            2.000000         3.944618562       307.786147178     -1263.334114182 
         3            3.000000         3.781338421       295.045912661     -1263.091137410 
         4            4.000000         4.406430727       343.819894109     -1263.991287088 
         5            5.000000         3.920569686       305.909689189     -1263.285721425 
         6            6.000000         3.956046570       308.677838614     -1263.383373284 
         7            7.000000         4.092966180       319.361243997     -1263.610604260 
         8            8.000000         3.674470270       286.707327865     -1262.990024013 
         9            9.000000         4.176565263       325.884216815     -1263.717901459 
        10           10.000000         3.852126752       300.569302880     -1263.308230395 
        11           11.000000         3.544791363       276.588891674     -1262.895826210 
        12           12.000000         4.109973129       320.688242584     -1263.685456136 
        13           13.000000         3.733854036       291.340855797     -1263.055483372 
        14           14.000000         3.876934920       302.505005975     -1263.283618235 
        15           15.000000         3.936742741       307.171621662     -1263.420350974 
        16           16.000000         3.448834726       269.101697851     -1262.718491084 
        17           17.000000         4.046863695       315.764012492     -1263.552029615 
        18           18.000000         3.858546154       301.070188563     -1263.346817389 
        19           19.000000         3.565241015       278.184513513     -1262.918244527 
        20           20.000000         4.002314878       312.288008740     -1263.562176133 
        21           21.000000         3.641550386       284.138693082     -1263.000640309 
        22           22.000000         3.954946335       308.591990717     -1263.373481896 
        23           23.000000         4.036611395       314.964057780     -1263.515082079 
        24           24.000000         3.459156995       269.907111989     -1262.688206892 
        25           25.000000         4.025535564       314.099845643     -1263.510018079 
        26           26.000000         3.951512159       308.324032825     -1263.384354298 
        27           27.000000         3.786951622       295.483893000     -1263.149382490 
        28           28.000000         4.124563728       321.826700966     -1263.666300954 
        29           29.000000         3.605776545       281.347373130     -1262.951865079 
        30           30.000000         3.978472266       310.427644943     -1263.454320997 
        31           31.000000         4.212760973       328.708453931     -1263.792082314 
        32           32.000000         3.631387381       283.345705844     -1262.988763807 
        33           33.000000         4.031068552       314.531567232     -1263.595778256 
        34           34.000000         3.902123596       304.470398967     -1263.382072152 
        35           35.000000         3.889708892       303.501718780     -1263.319854438 
        36           36.000000         4.286794899       334.485087688     -1263.915803835 
        37           37.000000         3.622354150       282.640871321     -1263.016514012 
        38           38.000000         3.854391610       300.746022651     -1263.379693665 
        39           39.000000         4.127494214       322.055357610     -1263.748301157 
        40           40.000000         3.716839083       290.013232706     -1263.142960982 
        41           41.000000         4.077088888       318.122388973     -1263.712295917 
        42           42.000000         3.710815180       289.543206526     -1263.207618840 
        43           43.000000         3.665725478       286.024999300     -1263.126523870 
        44           44.000000         4.209462763       328.451105006     -1263.839262728 
        45           45.000000         3.615807505       282.130057245     -1262.965198894 
        46           46.000000         3.724037480       290.574900929     -1263.182774732 
        47           47.000000         3.862673668       301.392245519     -1263.388667679 
        48           48.000000         3.564216637       278.104584520     -1262.932766295 
        49           49.000000         4.096656694       319.649203139     -1263.664732074 
        50           50.000000         3.718792989       290.165689835     -1263.151221731 
        51           51.000000         3.543717533       276.505104109     -1262.908199347 
        52           52.000000         4.070821318       317.633350231     -1263.629756478 
        53           53.000000         3.664791592       285.952131120     -1263.017841007 
        54           54.000000         3.863153965       301.429721514     -1263.342146829 
        55           55.000000         3.871289778       302.064533400     -1263.354234669 
        56           56.000000         3.500371867       273.122978458     -1262.823203861 
        57           57.000000         4.120271832       321.491817861     -1263.654315203 
        58           58.000000         3.823618160       298.344867379     -1263.216368907 
        59           59.000000         3.612345323       281.859914097     -1262.979889160 
        60           60.000000         4.017334573       313.459948222     -1263.571832658 
        61           61.000000         3.620664141       282.509005256     -1262.963121111 
        62           62.000000         3.962691142       309.196293582     -1263.442989428 
        63           63.000000         3.955961714       308.671217494     -1263.428751817 
        64           64.000000         3.472983556       270.985954888     -1262.749623600 
        65           65.000000         4.063691770       317.077054070     -1263.570545660 
        66           66.000000         3.863858405       301.484686771     -1263.246651119 
        67           67.000000         3.714783799       289.852865400     -1263.033025968 
        68           68.000000         4.008271740       312.752803870     -1263.494439292 
        69           69.000000         3.554327908       277.332998204     -1262.766528949 
        70           70.000000         3.986728002       311.071814001     -1263.422588056 
        71           71.000000         4.072238488       317.743927524     -1263.534021862 
        72           72.000000         3.564256931       278.107728567     -1262.802441797 
        73           73.000000         4.011116726       312.974789180     -1263.395891368 
        74           74.000000         3.798714679       296.401727264     -1263.126173158 
        75           75.000000         3.790790626       295.783438390     -1263.111238375 
        76           76.000000         4.085356755       318.767504508     -1263.596113026 
        77           77.000000         3.485198428       271.939042873     -1262.763235165 
        78           78.000000         3.847674881       300.221937458     -1263.275612236 
        79           79.000000         4.022233354       313.842184582     -1263.491292676 
        80           80.000000         3.615381544       282.096820894     -1262.898224904 
        81           81.000000         3.993847296       311.627310038     -1263.503022466 
        82           82.000000         3.667284773       286.146666193     -1263.062908902 
        83           83.000000         3.721723413       290.394341574     -1263.113207581 
        84           84.000000         4.128245651       322.113989844     -1263.697893048 
        85           85.000000         3.526274575       275.144085083     -1262.861977800 
        86           86.000000         3.776960804       294.704340995     -1263.251629634 
        87           87.000000         3.916159007       305.565537860     -1263.422333572 
        88           88.000000         3.662103623       285.742397342     -1263.025537340 
        89           89.000000         4.095633709       319.569382813     -1263.671684598 
        90           90.000000         3.655293839       285.211051432     -1263.077455147 
        91           91.000000         3.651190211       284.890858250     -1263.061431296 
        92           92.000000         4.127921205       322.088674314     -1263.736134577 
        93           93.000000         3.652199455       284.969606382     -1263.045204121 
        94           94.000000         3.854535448       300.757245876     -1263.374970760 
        95           95.000000         3.823429859       298.330174808     -1263.338053429 
        96           96.000000         3.578533233       279.221663384     -1262.965810719 
        97           97.000000         4.125856281       321.927554856     -1263.739689986 
        98           98.000000         3.688752744       287.821744223     -1263.147755655 
        99           99.000000         3.561000292       277.853623247     -1263.007563528 
       100          100.000000         3.957674607       308.804869166     -1263.669623526 
       101          101.000000         3.610136638       281.687577425     -1263.078563785 
       102          102.000000         3.932666392       306.853557055     -1263.549418667 
       103          103.000000         3.818307810       297.930517501     -1263.420026118 
       104          104.000000         3.464773481       270.345348659     -1262.941205435 
       105          105.000000         4.046173742       315.710177587     -1263.733202173 
       106          106.000000         3.774017187       294.474659835     -1263.349760896 
       107          107.000000         3.682738325       287.352458063     -1263.249560493 
       108          108.000000         3.916633897       305.602592002     -1263.595739147 
       109          109.000000         3.531771365       275.572982293     -1262.961413017 
       110          110.000000         3.983343574       310.807737746     -1263.581454751 
       111          111.000000         3.924215912       306.194192725     -1263.532510793 
       112          112.000000         3.483523912       271.808385684     -1262.934526479 
       113          113.000000         3.939830518       307.412551208     -1263.577858833 
       114          114.000000         3.706702800       289.222330519     -1263.209448202 
       115          115.000000         3.759784269       293.364110153     -1263.280916384 
       116          116.000000         3.972539018       309.964692299     -1263.644390784 
       117          117.000000         3.478148739       271.388977853     -1262.936871438 
       118          118.000000         3.928431046       306.523086312     -1263.591811875 
       119          119.000000         3.981069165       310.630272737     -1263.581075090 
       120          120.000000         3.596417204       280.617093213     -1263.000733709 
       121          121.000000         3.924652158       306.228231617     -1263.569704146 
       122          122.000000         3.613080660       281.917290146     -1263.099019231 
       123          123.000000         3.761498793       293.497889011     -1263.296613170 
       124          124.000000         4.059341937       316.737650347     -1263.719788514 
       125          125.000000         3.521936770       274.805619835     -1262.952753004 
       126          126.000000         3.841338670       299.727542836     -1263.427662853 
       127          127.000000         3.899201959       304.242432807     -1263.485101997 
       128          128.000000         3.668945908       286.276279294     -1263.167767872 
       129          129.000000         3.995410794       311.749304842     -1263.694315141 
       130          130.000000         3.546676103       276.735951982     -1263.073236325 
       131          131.000000         3.657813079       285.407619784     -1263.216715701 
       132          132.000000         4.046093964       315.703952783     -1263.749638093 
       133          133.000000         3.606889903       281.434244880     -1263.111793541 
       134          134.000000         3.871309592       302.066079425     -1263.504610428 
       135          135.000000         3.824196514       298.389994495     -1263.401831596 
       136          136.000000         3.654989472       285.187302604     -1263.171588144 
       137          137.000000         4.114501459       321.041573911     -1263.826472710 
       138          138.000000         3.678268994       287.003730300     -1263.221435602 
       139          139.000000         3.682735394       287.352229378     -1263.262334165 
       140          140.000000         4.017990599       313.511135825     -1263.721417857 
       141          141.000000         3.682327900       287.320433941     -1263.226149466 
       142          142.000000         3.970878905       309.835158874     -1263.688688508 
       143          143.000000         3.794375474       296.063152778     -1263.465272548 
       144          144.000000         3.567758013       278.380906921     -1263.134534549 
       145          145.000000         4.074319131       317.906273514     -1263.819766546 
       146          146.000000         3.741696729       291.952796455     -1263.333210032 
       147          147.000000         3.734173266       291.365764330     -1263.308514990 
       148          148.000000         3.937732513       307.248850453     -1263.586896271 
       149          149.000000         3.602300026       281.076111313     -1263.080867726 
       150          150.000000         3.968425643       309.643738622     -1263.587185542 
       151          151.000000         3.801720382       296.636252792     -1263.401718189 
       152          152.000000         3.509387272       273.826422077     -1262.983745474 
       153          153.000000         3.978965740       310.466149107     -1263.655357669 
       154          154.000000         3.747125542       292.376389618     -1263.256617796 
       155          155.000000         3.834239567       299.173622277     -1263.379717927 
       156          156.000000         3.990854997       311.393830399     -1263.617219811 
       157          157.000000         3.607824047       281.507133211     -1263.085444139 
       158          158.000000         4.021316446       313.770641149     -1263.654865105 
       159          159.000000         3.918361824       305.737416668     -1263.520225413 
       160          160.000000         3.601407375       281.006460564     -1263.097845774 
       161          161.000000         3.939511216       307.387637019     -1263.611835670 
       162          162.000000         3.700445790       288.734115732     -1263.217194683 
       163          163.000000         3.884964233       303.131508012     -1263.466633909 
       164          164.000000         4.023702586       313.956824157     -1263.650062921 
       165          165.000000         3.560334766       277.801694379     -1263.015559767 
       166          166.000000         3.916113640       305.561997951     -1263.525396517 
       167          167.000000         3.888438521       303.402595688     -1263.463191890 
       168          168.000000         3.679454189       287.096207290     -1263.167919394 
       169          169.000000         3.949742758       308.185971987     -1263.603931188 
       170          170.000000         3.600250057       280.916158637     -1263.106923054 
       171          171.000000         3.813881469       297.585144063     -1263.377599464 
       172          172.000000         4.070144255       317.580521135     -1263.717595579 
       173          173.000000         3.634217202       283.566507863     -1263.132681240 
       174          174.000000         3.871592337       302.088141071     -1263.504122136 
       175          175.000000         3.813289886       297.538984737     -1263.394523073 
       176          176.000000         3.726137080       290.738726098     -1263.226788251 
       177          177.000000         4.046995686       315.774311317     -1263.699789156 
       178          178.000000         3.631838419       283.380898953     -1263.142777012 
       179          179.000000         3.741205082       291.914434742     -1263.309608053 
       180          180.000000         3.995283997       311.739411305     -1263.657275059 
       181          181.000000         3.683924217       287.444989500     -1263.201908068 
       182          182.000000         3.923548717       306.142133575     -1263.605216105 
       183          183.000000         3.739644365       291.792656945     -1263.315781841 
       184          184.000000         3.640422349       284.050675899     -1263.160837946 
       185          185.000000         4.060259824       316.809270163     -1263.716069328 
       186          186.000000         3.702178295       288.869297672     -1263.194244119 
       187          187.000000         3.741616346       291.946524375     -1263.332474638 
       188          188.000000         3.906031819       304.775345288     -1263.528606707 
       189          189.000000         3.652167355       284.967101729     -1263.139184556 
       190          190.000000         3.964245304       309.317559941     -1263.652273226 
       191          191.000000         3.764909915       293.764048129     -1263.407007348 
       192          192.000000         3.601276948       280.996283737     -1263.202141194 
       193          193.000000         3.980008071       310.547478915     -1263.576293060 
       194          194.000000         3.730552122       291.083217889     -1263.200467620 
       195          195.000000         3.810776791       297.342895799     -1263.310320907 
       196          196.000000         3.873547502       302.240696440     -1263.430422325 
       197          197.000000         3.594229567       280.446398833     -1263.012078119 
       198          198.000000         3.973509499       310.040415852     -1263.520532815 
       199          199.000000         3.844587870       299.981067663     -1263.331479935 
       200          200.000000         3.647470270       284.600602997     -1263.042430740 
       201          201.000000         3.936556767       307.157110702     -1263.452642882 
       202          202.000000         3.718659765       290.155294772     -1263.099055142 
       203          203.000000         3.897852776       304.137160367     -1263.350173090 
       204          204.000000         3.949527708       308.169192320     -1263.426354387 
       205          205.000000         3.590965477       280.191712170     -1262.934414307 
       206          206.000000         3.909230399       305.024920406     -1263.412853928 
       207          207.000000         3.823176197       298.310382368     -1263.263802835 
       208          208.000000         3.677829951       286.969473117     -1263.056692157 
       209          209.000000         3.897523489       304.111467083     -1263.412592796 
       210          210.000000         3.627368445       283.032121000     -1263.019700073 
       211          211.000000         3.817695041       297.882705044     -1263.268682593 
       212          212.000000         3.928417048       306.521994084     -1263.433268548 
       213          213.000000         3.595934899       280.579460524     -1262.976724283 
       214          214.000000         3.843492689       299.895614175     -1263.351756421 
       215          215.000000         3.758227805       293.242664128     -1263.214735996 
       216          216.000000         3.695501555       288.348332670     -1263.116002256 
       217          217.000000         3.918110554       305.717810900     -1263.462116450 
       218          218.000000         3.601583606       281.020211279     -1263.027058492 
       219          219.000000         3.774342698       294.500058455     -1263.259010137 
       220          220.000000         3.915702849       305.529945216     -1263.445256911 
       221          221.000000         3.647218938       284.580992358     -1263.051824683 
       222          222.000000         3.868751342       301.866467240     -1263.391690813 
       223          223.000000         3.730521600       291.080836393     -1263.190092273 
       224          224.000000         3.701196599       288.792699040     -1263.129584611 
       225          225.000000         3.969451793       309.723805884     -1263.549130101 
       226          226.000000         3.662392563       285.764942405     -1263.075130205 
       227          227.000000         3.775062322       294.556208424     -1263.184062856 
       228          228.000000         3.915013439       305.476152760     -1263.385955940 
       229          229.000000         3.720216043       290.276726234     -1263.063958810 
       230          230.000000         3.935370242       307.064529907     -1263.364638131 
       231          231.000000         3.752063746       292.761702113     -1263.125525666 
       232          232.000000         3.692509132       288.114843321     -1263.072074361 
       233          233.000000         3.973996265       310.078396685     -1263.462857364 
       234          234.000000         3.725389266       290.680376521     -1263.084116677 
       235          235.000000         3.813550392       297.559311164     -1263.293289529 
       236          236.000000         3.875390193       302.384475800     -1263.391849914 
       237          237.000000         3.704863574       289.078821472     -1263.153986257 
       238          238.000000         3.961720116       309.120527493     -1263.523631848 
       239          239.000000         3.768691044       294.059077743     -1263.281699351 
       240          240.000000         3.669230383       286.298475965     -1263.143835384 
       241          241.000000         3.927892957       306.481100902     -1263.501425928 
       242          242.000000         3.751099687       292.686479631     -1263.198009383 
       243          243.000000         3.873728777       302.254840798     -1263.370727237 
       244          244.000000         3.871225711       302.059534416     -1263.381220744 
       245          245.000000         3.650843820       284.863830407     -1263.087746639 
       246          246.000000         3.944991404       307.815238833     -1263.448837711 
       247          247.000000         3.846043933       300.094679678     -1263.296385531 
       248          248.000000         3.741343258       291.925216171     -1263.191322982 
       249          249.000000         3.906459398       304.808707901     -1263.449908692 
       250          250.000000         3.725177716       290.663869909     -1263.155690278 
       251          251.000000         3.891225115       303.620024859     -1263.370410982 
       252          252.000000         3.898661678       304.200276435     -1263.360231619 
       253          253.000000         3.632967484       283.468996331     -1263.008168426 
       254          254.000000         3.842195263       299.794380128     -1263.304223131 
       255          255.000000         3.764622887       293.741652207     -1263.176602962 
       256          256.000000         3.747067307       292.371845664     -1263.128495851 
       257          257.000000         3.913019328       305.320558565     -1263.350072274 
       258          258.000000         3.679600781       287.107645458     -1263.030151581 
       259          259.000000         3.850687007       300.456964095     -1263.257107547 
       260          260.000000         3.908852684       304.995448487     -1263.353617949 
       261          261.000000         3.664399866       285.921565932     -1262.998972546 
       262          262.000000         3.834739780       299.212652295     -1263.252336201 
       263          263.000000         3.749464602       292.558899044     -1263.114295199 
       264          264.000000         3.779415120       294.895843551     -1263.140476791 
       265          265.000000         3.977836688       310.378052741     -1263.416025674 
       266          266.000000         3.734349943       291.379549885     -1263.051223619 
       267          267.000000         3.839902350       299.615471336     -1263.217443579 
       268          268.000000         3.911406422       305.194708584     -1263.307890795 
       269          269.000000         3.743201257       292.070189982     -1263.046337522 
       270          270.000000         3.897619024       304.118921451     -1263.271058685 
       271          271.000000         3.758619291       293.273210574     -1263.082835577 
       272          272.000000         3.776802702       294.692004811     -1263.063177112 
       273          273.000000         4.003024418       312.343371890     -1263.429809366 
       274          274.000000         3.797277162       296.289562355     -1263.137445693 
       275          275.000000         3.864133987       301.506189596     -1263.239727145 
       276          276.000000         3.877092472       302.517299261     -1263.293777033 
       277          277.000000         3.749771536       292.582848144     -1263.131288792 
       278          278.000000         3.953880688       308.508841659     -1263.449280626 
       279          279.000000         3.811761257       297.419710603     -1263.224270439 
       280          280.000000         3.781120174       295.028883550     -1263.136508709 
       281          281.000000         3.967394777       309.563303380     -1263.328697196 
       282          282.000000         3.796732062       296.247029878     -1263.131668453 
       283          283.000000         3.862299097       301.363018909     -1263.315788179 
       284          284.000000         3.840241722       299.641951480     -1263.279148373 
       285          285.000000         3.709404275       289.433118112     -1263.117401316 
       286          286.000000         3.945529921       307.857257603     -1263.324158589 
       287          287.000000         3.865863280       301.641120862     -1263.224342941 
       288          288.000000         3.822535477       298.260388986     -1263.191508022 
       289          289.000000         3.956629244       308.723302770     -1263.388704079 
       290          290.000000         3.800925974       296.574267647     -1263.108350547 
       291          291.000000         3.908641952       304.979005704     -1263.279334616 
       292          292.000000         3.896152413       304.004486394     -1263.316640318 
       293          293.000000         3.746589662       292.334576600     -1263.109541959 
       294          294.000000         3.945874678       307.884157892     -1263.362948669 
       295          295.000000         3.890268342       303.545370889     -1263.215800007 
       296          296.000000         3.894168401       303.849680150     -1263.207983715 
       297          297.000000         4.004773806       312.479871128     -1263.383126524 
       298          298.000000         3.832617866       299.047086012     -1263.121250071 
       299          299.000000         3.940578469       307.470911443     -1263.255561009 
       300          300.000000         3.951210589       308.300502208     -1263.259913132 
       301          301.000000         3.808143562       297.137433287     -1263.077315461 
       302          302.000000         3.970846532       309.832632980     -1263.286559050 
       303          303.000000         3.906668742       304.825042359     -1263.171429661 
       304          304.000000         3.913749171       305.377505915     -1263.177710335 
       305          305.000000         4.028158279       314.304487793     -1263.358878195 
       306          306.000000         3.859475600       301.142710307     -1263.118737773 
       307          307.000000         3.956132812       308.684567742     -1263.238250471 
       308          308.000000         3.985144781       310.948280196     -1263.262742233 
       309          309.000000         3.871286920       302.064310347     -1263.099475456 
       310          310.000000         3.993988768       311.638348624     -1263.264036921 
       311          311.000000         3.898420950       304.181493187     -1263.100089292 
       312          312.000000         3.897255042       304.090521015     -1263.140084577 
       313          313.000000         3.991678071       311.458052201     -1263.266210696 
       314          314.000000         3.830214857       298.859586814     -1263.042704473 
       315          315.000000         3.904577209       304.661846686     -1263.171176430 
       316          316.000000         3.917255331       305.651080533     -1263.205272074 
       317          317.000000         3.824564913       298.418739526     -1263.032931775 
       318          318.000000         3.956814603       308.737765807     -1263.201840435 
       319          319.000000         3.853967299       300.712914997     -1263.053049236 
       320          320.000000         3.846189193       300.106013862     -1263.049823005 
       321          321.000000         3.952374805       308.391342373     -1263.229366739 
       322          322.000000         3.801066264       296.585214062     -1263.038710562 
       323          323.000000         3.863007801       301.418316813     -1263.139222123 
       324          324.000000         3.866397456       301.682800917     -1263.106163531 