#     Step Nr.          Time[fs]        Kin.[a.u.]          Temp[K]            Pot.[a.u.]        Cons Qty[a.u.]        UsedTime[s]
         0            0.000000         3.844830508       300.000000000     -1262.982678056     -1259.137372526         0.000000000
         1            1.000000         4.206340648       328.207496182     -1263.544903496     -1259.337183025        56.458907502
         2            2.000000         3.880926893       302.816487037     -1263.102681803     -1259.219409047        13.797234291
         3            3.000000         3.777733955       294.764667509     -1262.926765149     -1259.145757313        13.202219963
         4            4.000000         4.377258430       341.543671720     -1263.766122884     -1259.384597080        13.226675509
         5            5.000000         3.862876785       301.408094089     -1263.049597282     -1259.181366830        13.246987861
         6            6.000000         3.924432711       306.211108847     -1263.181137051     -1259.250304982        13.246574886
         7            7.000000         4.059086117       316.717689496     -1263.392706909     -1259.326130945        12.582466679
         8            8.000000         3.711778675       289.618384988     -1262.847009495     -1259.126648765        12.604211373
         9            9.000000         4.227058230       329.824023816     -1263.533928301     -1259.297177103        12.596223537
        10           10.000000         3.870592657       302.010139200     -1263.061368169     -1259.179893047        12.600216864
        11           11.000000         3.618658326       282.352497847     -1262.726519711     -1259.095870989        12.624724075
        12           12.000000         4.171552638       325.493097443     -1263.511060151     -1259.326390551        12.637859983
        13           13.000000         3.796844182       296.255778322     -1262.939913706     -1259.128757616        12.643498637
        14           14.000000         3.929678227       306.620399965     -1263.168149806     -1259.222998196        13.332605394
        15           15.000000         3.909197229       305.022332273     -1263.220209660     -1259.294348070        12.721471364
        16           16.000000         3.469859979       270.742232031     -1262.634412695     -1259.146765292        13.258420659
        17           17.000000         4.083388230       318.613906727     -1263.483052008     -1259.380776245        13.252750684
        18           18.000000         3.853131175       300.647674860     -1263.097138442     -1259.223937245        12.648153747
        19           19.000000         3.570598069       278.602507532     -1262.684846753     -1259.093072894        12.630233053
        20           20.000000         3.975414545       310.189060626     -1263.244293201     -1259.246617453        12.011748753
        21           21.000000         3.637131440       283.793896673     -1262.727262106     -1259.066767949        12.007134065
        22           22.000000         3.988191315       311.185991676     -1263.203492485     -1259.190860671        11.990664056
        23           23.000000         4.035934075       314.911208685     -1263.284399601     -1259.222870160        11.986916414
        24           24.000000         3.482307471       271.713470627     -1262.515072161     -1259.006065774        12.001680441
        25           25.000000         4.045736910       315.676092952     -1263.312062588     -1259.238567578        12.004312469
        26           26.000000         3.960174259       308.999909174     -1263.127707365     -1259.138625053        11.963650636
        27           27.000000         3.828320613       298.711784909     -1262.954650436     -1259.096282551        12.020043431
        28           28.000000         4.102251565       320.085753291     -1263.425131617     -1259.291667357        11.989597140
        29           29.000000         3.576337827       279.050362773     -1262.689052192     -1259.080343927        11.975869250
        30           30.000000         3.967039371       309.535572187     -1263.178659713     -1259.178144999        12.690988414
        31           31.000000         4.154218915       324.140601713     -1263.497432304     -1259.308529803        12.663623890
        32           32.000000         3.627406759       283.035110504     -1262.765366066     -1259.102076122        12.598305812
        33           33.000000         4.020875049       313.736200354     -1263.342338018     -1259.284423459        12.633310603
        34           34.000000         3.847623096       300.217896784     -1263.087075731     -1259.201204542        12.627737021
        35           35.000000         3.856033140       300.874106001     -1263.070113995     -1259.174646956        12.618000766
        36           36.000000         4.204578464       328.069998568     -1263.606216405     -1259.360954533        12.638642641
        37           37.000000         3.555890591       277.454929420     -1262.755484486     -1259.157663522        12.616635388
        38           38.000000         3.809951016       297.278463234     -1263.133800302     -1259.280772283        12.623822862
        39           39.000000         4.045723970       315.675083335     -1263.450671079     -1259.360657632        12.652301459
        40           40.000000         3.667402803       286.155875685     -1262.894205556     -1259.181301324        12.609162882
        41           41.000000         4.028827776       314.356726548     -1263.523002233     -1259.447484222        13.270523451
        42           42.000000         3.683332972       287.398856558     -1263.045678871     -1259.314448751        13.301425619
        43           43.000000         3.672366565       286.543182351     -1262.981395331     -1259.260006912        13.277706102
        44           44.000000         4.146168308       323.512438259     -1263.631374063     -1259.435014801        12.632713355
        45           45.000000         3.571711544       278.689388508     -1262.811617825     -1259.188531073        12.709750863
        46           46.000000         3.731226609       291.135845958     -1263.069265261     -1259.285581293        12.609764770
        47           47.000000         3.872287950       302.142417568     -1263.301562023     -1259.375716645        13.297738561
        48           48.000000         3.615582630       282.112510959     -1262.885789622     -1259.215574168        13.261044914
        49           49.000000         4.093135539       319.374458495     -1263.566431619     -1259.417587914        13.917850979
        50           50.000000         3.675097767       286.756289461     -1263.013401316     -1259.281488304        14.658737445
        51           51.000000         3.561269205       277.874605742     -1262.861483122     -1259.242395841        13.940482950
        52           52.000000         4.072616331       317.773409440     -1263.536784667     -1259.405337481        12.665321838
        53           53.000000         3.649322877       284.745156064     -1262.902194593     -1259.192998030        12.595614975
        54           54.000000         3.845687423       300.066862384     -1263.207046412     -1259.300500307        12.618083499
        55           55.000000         3.853574455       300.682262555     -1263.234351902     -1259.318915422        12.590971010
        56           56.000000         3.575292383       278.968790057     -1262.793225916     -1259.155112347        12.634944439
        57           57.000000         4.189451643       326.889700400     -1263.639575581     -1259.386336451        12.594169728
        58           58.000000         3.850030444       300.405734622     -1263.116544240     -1259.201683424        12.633382147
        59           59.000000         3.657755088       285.403094891     -1262.878752882     -1259.155192657        12.586997373
        60           60.000000         4.050591471       316.054879035     -1263.431159718     -1259.313789613        12.630391994
        61           61.000000         3.706041323       289.170717568     -1262.879463786     -1259.105645683        12.611398021
        62           62.000000         4.024938135       314.053230186     -1263.335119572     -1259.241425432        12.665249951
        63           63.000000         3.954451862       308.553408556     -1263.272510244     -1259.248269087        12.612980308
        64           64.000000         3.516849167       274.408650227     -1262.652040744     -1259.064426460        12.629475441
        65           65.000000         4.091707856       319.263060886     -1263.469910105     -1259.306488369        12.591042496
        66           66.000000         3.866677664       301.704664668     -1263.122560248     -1259.183150559        12.617373962
        67           67.000000         3.706956068       289.242092245     -1262.901291129     -1259.120632606        12.638377061
        68           68.000000         3.942781200       307.642783605     -1263.286517772     -1259.269076363        12.626803989
        69           69.000000         3.510361028       273.902401208     -1262.639051025     -1259.053097963        12.608037287
        70           70.000000         3.956787177       308.735625812     -1263.271460044     -1259.238196161        12.587272095
        71           71.000000         4.003014904       312.342629543     -1263.331833181     -1259.251389974        12.597093252
        72           72.000000         3.496129629       272.791970020     -1262.650523777     -1259.076056172        12.626075245
        73           73.000000         3.922132903       306.031662112     -1263.277318642     -1259.275997961        12.608610839
        74           74.000000         3.733348031       291.301373878     -1262.971607570     -1259.158198681        12.572603693
        75           75.000000         3.778242861       294.804375857     -1262.994189257     -1259.135049408        12.578635320
        76           76.000000         4.047006202       315.775131787     -1263.394372296     -1259.265610295        12.619418558
        77           77.000000         3.493778724       272.608536281     -1262.677552234     -1259.101174746        12.557924608
        78           78.000000         3.896674032       304.045186684     -1263.231435174     -1259.251385746        12.566600986
        79           79.000000         4.057237349       316.573435992     -1263.414391421     -1259.272942190        12.622140983
        80           80.000000         3.671466931       286.472986739     -1262.867772728     -1259.111256666        12.584947854
        81           81.000000         3.996627799       311.844263899     -1263.351453132     -1259.268966847        11.994229978
        82           82.000000         3.652196505       284.969376226     -1262.767219090     -1259.028347452        11.950813783
        83           83.000000         3.732613997       291.244099494     -1262.867626480     -1259.047580082        12.608024932
        84           84.000000         4.107314645       320.480809473     -1263.406070100     -1259.210538573        12.595940258
        85           85.000000         3.540342678       276.241774763     -1262.617019855     -1258.987670500        11.947482781
        86           86.000000         3.800503831       296.541329141     -1263.074485284     -1259.184259606        12.605315061
        87           87.000000         3.902663113       304.512495798     -1263.188646858     -1259.195528009        12.605941262
        88           88.000000         3.655022903       285.189911076     -1262.803058878     -1259.056861284        12.592856644
        89           89.000000         4.039948616       315.224450655     -1263.381799801     -1259.249970805        11.989559621
        90           90.000000         3.588577797       280.005409022     -1262.777923721     -1259.096751724        11.981026763
        91           91.000000         3.612469160       281.869576736     -1262.805590061     -1259.099893594        11.944784431
        92           92.000000         4.060441039       316.823409807     -1263.421809306     -1259.267505823        11.947018934
        93           93.000000         3.605974271       281.362801064     -1262.771654371     -1259.071165988        12.010844303
        94           94.000000         3.815161297       297.685005030     -1263.123015292     -1259.212742889        12.572979216
        95           95.000000         3.776180200       294.643432963     -1263.068336335     -1259.196449459        11.978937136
        96           96.000000         3.556811573       277.526790748     -1262.717873399     -1259.064800146        11.953309774
        97           97.000000         4.068672344       317.465672578     -1263.424015497     -1259.258546853        11.958001118
        98           98.000000         3.642309498       284.197924218     -1262.841891099     -1259.102226199        11.993670532
        99           99.000000         3.577740418       279.159802481     -1262.772693855     -1259.097106811        12.012198312
       100          100.000000         3.978311398       310.415092859     -1263.374227541     -1259.297599519        12.598523689
       101          101.000000         3.656433292       285.299959340     -1262.865072797     -1259.109841751        12.644299317
       102          102.000000         3.974561361       310.122489317     -1263.329077918     -1259.255262168        11.944943868
       103          103.000000         3.827594818       298.655153444     -1263.123733783     -1259.196405701        11.956149628
       104          104.000000         3.515137792       274.275117044     -1262.688068601     -1259.072756143        12.599446025
       105          105.000000         4.078453645       318.228876635     -1263.491262667     -1259.312224310        12.630141132
       106          106.000000         3.772131769       294.327546646     -1263.079827222     -1259.206663563        12.567001004
       107          107.000000         3.707186176       289.260046786     -1263.024507955     -1259.215874227        13.241269421
       108          108.000000         3.946230772       307.911942820     -1263.326399021     -1259.278317494        12.571265405
       109          109.000000         3.593333984       280.376519285     -1262.781154830     -1259.085569395        12.635453716
       110          110.000000         4.027935636       314.287115663     -1263.394225105     -1259.263665691        12.575678803
       111          111.000000         3.925220586       306.272584250     -1263.291690546     -1259.263435692        12.622325417
       112          112.000000         3.519904744       274.647067245     -1262.746574215     -1259.123244312        12.562458539
       113          113.000000         3.984185335       310.873417668     -1263.426517260     -1259.338557567        12.556063160
       114          114.000000         3.749314455       292.547183587     -1263.046686071     -1259.193228505        12.606068742
       115          115.000000         3.798270861       296.367097521     -1263.121366615     -1259.218606364        12.576550694
       116          116.000000         3.970246425       309.785808506     -1263.376617949     -1259.301533742        12.592071848
       117          117.000000         3.500555335       273.137293878     -1262.704611247     -1259.098875704        12.607381929
       118          118.000000         3.956082418       308.680635661     -1263.332253910     -1259.270696172        12.611469725
       119          119.000000         3.965066960       309.381671182     -1263.327373935     -1259.256507912        11.970423097
       120          120.000000         3.604270258       281.229842289     -1262.837284970     -1259.126893136        11.949055459
       121          121.000000         3.954474148       308.555147455     -1263.341004011     -1259.280117876        11.965130655
       122          122.000000         3.669167477       286.293567611     -1262.907793349     -1259.131916186        12.637050176
       123          123.000000         3.841698572       299.755624912     -1263.123709196     -1259.175032322        12.593649777
       124          124.000000         4.082014016       318.506681118     -1263.477171101     -1259.287895356        11.985141261
       125          125.000000         3.529844262       275.422616507     -1262.714257124     -1259.076852883        11.980984719
       126          126.000000         3.863029662       301.420022544     -1263.205057042     -1259.234218791        11.995146316
       127          127.000000         3.885632694       303.183665850     -1263.216299668     -1259.222602804        11.986598440
       128          128.000000         3.654701275       285.164815514     -1262.862067250     -1259.099052352        11.985548390
       129          129.000000         4.000273189       312.128702184     -1263.434855681     -1259.326040405        12.625885673
       130          130.000000         3.594361769       280.456714133     -1262.860892445     -1259.157750642        12.621547528
       131          131.000000         3.748393869       292.475353112     -1263.059205954     -1259.201837741        12.607775718
       132          132.000000         4.081495055       318.466188234     -1263.467049560     -1259.276388576        12.610672107
       133          133.000000         3.605878383       281.355319162     -1262.793574830     -1259.078316327        12.621586416
       134          134.000000         3.860121171       301.193082155     -1263.194942836     -1259.225263267        11.967619237
       135          135.000000         3.787035057       295.490403173     -1263.133231313     -1259.236460911        12.578024406
       136          136.000000         3.639590180       283.985744392     -1262.896594155     -1259.147110339        12.560647868
       137          137.000000         4.068519763       317.453767144     -1263.523633745     -1259.345083499        12.662540726
       138          138.000000         3.619639712       282.429072296     -1263.018842271     -1259.289013416        13.842157895
       139          139.000000         3.668948931       286.276515177     -1263.100050281     -1259.320793322        13.829486202
       140          140.000000         3.989495863       311.287781453     -1263.544198457     -1259.444298333        13.866987644
       141          141.000000         3.633226399       283.489198632     -1263.011892218     -1259.268154157        13.856411284
       142          142.000000         3.926638279       306.383202341     -1263.452625328     -1259.415395091        13.194705887
       143          143.000000         3.771369187       294.268044724     -1263.252389715     -1259.370341854        13.260354260
       144          144.000000         3.599213171       280.835253684     -1262.984349227     -1259.274388961        13.215775799
       145          145.000000         4.114984246       321.079244248     -1263.694155429     -1259.468384854        13.879638964
       146          146.000000         3.753163962       292.847548484     -1263.188120350     -1259.324097657        13.831686195
       147          147.000000         3.771801278       294.301759424     -1263.310476735     -1259.427756180        14.500188934
       148          148.000000         3.988621224       311.219536134     -1263.622811795     -1259.523218735        14.465872090
       149          149.000000         3.667764921       286.184130593     -1263.131086310     -1259.352282676        15.150290230
       150          150.000000         4.054510465       316.360665828     -1263.674737972     -1259.509139341        14.485635601
       151          151.000000         3.862309810       301.363854809     -1263.379013653     -1259.405537104        14.509635683
       152          152.000000         3.592141669       280.283486717     -1263.008033284     -1259.304649320        15.132748760
       153          153.000000         4.059538397       316.752979503     -1263.663705423     -1259.492879590        13.847013718
       154          154.000000         3.782530485       295.138925611     -1263.248271085     -1259.354382348        14.521945992
       155          155.000000         3.861758874       301.320866968     -1263.342086437     -1259.368903918        13.870040670
       156          156.000000         3.982805829       310.765779148     -1263.517330842     -1259.423029884        13.882988708
       157          157.000000         3.589598727       280.085068942     -1262.932714636     -1259.231537411        13.898164611
       158          158.000000         4.031227630       314.543979580     -1263.550717879     -1259.407858220        13.881656364
       159          159.000000         3.928091494       306.496592148     -1263.419404643     -1259.379600901        13.898838885
       160          160.000000         3.647728868       284.620780598     -1263.061108794     -1259.301579342        15.182652419
       161          161.000000         4.000362888       312.135701108     -1263.553139904     -1259.440911102        14.557822069
       162          162.000000         3.706853569       289.234094538     -1263.087402786     -1259.268602650        15.129910773
       163          163.000000         3.886165189       303.225214827     -1263.329487274     -1259.331311880        13.898667669
       164          164.000000         4.024759335       314.039278968     -1263.630882593     -1259.494039317        15.139987951
       165          165.000000         3.568933848       278.472653660     -1263.038546827     -1259.357437565        15.858781718
       166          166.000000         3.942936462       307.654898176     -1263.568255720     -1259.513087550        15.180525055
       167          167.000000         3.872435303       302.153915094     -1263.455633986     -1259.470899711        14.523502298
       168          168.000000         3.666248291       286.065792723     -1263.176679331     -1259.398065136        14.527201142
       169          169.000000         3.963275621       309.241898604     -1263.594227400     -1259.518541386        14.577470692
       170          170.000000         3.605148344       281.298356568     -1263.074305701     -1259.356695547        14.544306640
       171          171.000000         3.818377822       297.935980269     -1263.347539813     -1259.416682640        14.569597997
       172          172.000000         4.024335401       314.006200693     -1263.634256137     -1259.497428164        14.573800154
       173          173.000000         3.572705876       278.766973056     -1262.983785509     -1259.298555042        14.556948641
       174          174.000000         3.872626038       302.168797515     -1263.443493466     -1259.458346364        14.553278601
       175          175.000000         3.780119112       294.950773823     -1263.303926069     -1259.411293479        14.571989607
       176          176.000000         3.671636352       286.486206137     -1263.093755589     -1259.309625979        13.940370094
       177          177.000000         4.012332287       313.069635557     -1263.605830262     -1259.481048990        15.173120262
       178          178.000000         3.592556561       280.315859413     -1263.025688523     -1259.320712280        14.552087469
       179          179.000000         3.771739010       294.296900907     -1263.273788474     -1259.389692366        15.211597858
       180          180.000000         4.018994566       313.589472221     -1263.590883517     -1259.459610743        13.918049086
       181          181.000000         3.654938301       285.183309861     -1262.993214328     -1259.226055978        13.299905321
       182          182.000000         3.921816797       306.006997313     -1263.430253997     -1259.396296468        13.265226798
       183          183.000000         3.731726159       291.174824304     -1263.184394737     -1259.340603785        12.660029082
       184          184.000000         3.642728368       284.230607354     -1263.029192184     -1259.274491288        12.662711002
       185          185.000000         4.053508831       316.282511461     -1263.643577901     -1259.478220731        13.317170398
       186          186.000000         3.656259066       285.286365012     -1263.069631946     -1259.301627266        14.055131411
       187          187.000000         3.755125068       293.000567349     -1263.228726998     -1259.361979409        15.445757551
       188          188.000000         3.939883272       307.416667414     -1263.493797223     -1259.442434807        14.636042086
       189          189.000000         3.655185305       285.202582863     -1263.032197344     -1259.265667020        15.284186855
       190          190.000000         3.987576299       311.138003889     -1263.519368305     -1259.420604339        14.562911600
       191          191.000000         3.742479297       292.013857715     -1263.206407374     -1259.352885244        14.563284829
       192          192.000000         3.589346455       280.065384958     -1263.013814585     -1259.313579695        14.565768603
       193          193.000000         4.018844609       313.577771517     -1263.557270800     -1259.427734315        13.273721712
       194          194.000000         3.720353016       290.287413807     -1263.108927527     -1259.278065714        13.312980279
       195          195.000000         3.842630295       299.828324279     -1263.236863066     -1259.283916957        13.311700957
       196          196.000000         3.935957696       307.110367074     -1263.437912111     -1259.391838126        14.577880228
       197          197.000000         3.643604824       284.298994429     -1262.998406193     -1259.244870924        13.953143651
       198          198.000000         4.045426933       315.651906437     -1263.565002789     -1259.409856915        13.926003231
       199          199.000000         3.841238282       299.719709936     -1263.253692234     -1259.302926467        13.315697940
       200          200.000000         3.642699304       284.228339566     -1262.983107296     -1259.231062509        12.631516907
       201          201.000000         3.989528043       311.290292332     -1263.481664842     -1259.383003752        12.683181016
       202          202.000000         3.714254278       289.811548511     -1263.063542718     -1259.240356414        12.635517258
       203          203.000000         3.909630375       305.056129224     -1263.338726641     -1259.320377510        13.302310135
       204          204.000000         3.955878502       308.664724798     -1263.415950308     -1259.351563670        12.685277686
       205          205.000000         3.562610577       277.979268702     -1262.842302269     -1259.171373832        13.318597153
       206          206.000000         3.948940096       308.123342848     -1263.396077669     -1259.339046498        13.291188452
       207          207.000000         3.823302881       298.320267142     -1263.203732552     -1259.272565130        13.325484086
       208          208.000000         3.694464223       288.267392944     -1263.044237923     -1259.242132655        13.312759522
       209          209.000000         3.978887066       310.460010486     -1263.496010420     -1259.409730467        12.639072904
       210          210.000000         3.657560281       285.387894678     -1263.027913185     -1259.263195589        12.676258545
       211          211.000000         3.900918058       304.376334597     -1263.324302574     -1259.316483775        12.627297930
       212          212.000000         3.988241395       311.189899256     -1263.386755328     -1259.291873676        12.669925500
       213          213.000000         3.602644816       281.103014174     -1262.821809499     -1259.112758699        12.667756494
       214          214.000000         3.937228568       307.209529234     -1263.353141594     -1259.309770268        12.669099519
       215          215.000000         3.822257687       298.238713975     -1263.131077408     -1259.202940864        12.671841359
       216          216.000000         3.777445445       294.742156004     -1263.048680597     -1259.165617926        13.330921264
       217          217.000000         4.074105971       317.889641349     -1263.517498850     -1259.338051402        12.686491676
       218          218.000000         3.704033147       289.014025897     -1262.979296917     -1259.170166731        12.656760562
       219          219.000000         3.913010423       305.319863743     -1263.287875027     -1259.270020992        12.695828207
       220          220.000000         4.027221655       314.231405974     -1263.456139715     -1259.324327465        12.652940879
       221          221.000000         3.670034741       286.361237484     -1262.973937126     -1259.199533012        12.698337115
       222          222.000000         3.940537567       307.467719972     -1263.386335728     -1259.341667262        12.664803509
       223          223.000000         3.754047878       292.916517639     -1263.152068116     -1259.294123310        12.669221565
       224          224.000000         3.734874702       291.420495201     -1263.093622118     -1259.255092485        12.711455118
       225          225.000000         4.046515017       315.736806236     -1263.539908838     -1259.390004957        13.312170850
       226          226.000000         3.648491662       284.680298954     -1262.969886403     -1259.218247273        12.736461069
       227          227.000000         3.812703559       297.493235434     -1263.272867468     -1259.357275925        13.396032264