    2699
 i =        0, time =        0.000, E =     -1263.2440811939
  C        11.6008890000       11.1762650000       10.4970590000
  O        11.2027570000       12.3281330000       10.0708130000
  O        13.2822390000       11.2413120000       10.6968380000
  N        10.9395800000       10.4855340000       11.2801100000
  H        13.4658990000       10.8042240000       11.5884740000
  H        11.2980180000        9.5367180000       11.2771340000
  H        10.4647270000       10.8879020000       12.0449830000
  N        11.6933350000       10.3606110000        8.9848020000
  H        12.6863010000       10.3254290000        8.4389100000
  H        11.5895360000        9.2769680000        9.1294510000
  H        11.0616970000       10.8357910000        8.4286210000
  O        27.7037720000       14.6056840000        1.9168720000
  H        27.2280240000       14.5132080000        1.0518800000
  H        28.0374180000       13.7152210000        2.1109460000
  O         0.2456260000       19.3103870000       -0.1884250000
  H         0.0863740000       19.5229260000        0.7505270000
  H         1.0295720000       19.7964380000       -0.3913650000
  O         0.5307540000        8.3871990000      -11.0021000000
  H        -0.1216080000        8.5515910000      -11.6992850000
  H         0.1819740000        8.9918580000      -10.3093040000
  O        26.8719650000       21.8530620000       -7.5961030000
  H        27.1044730000       22.0034280000       -6.7158440000
  H        25.8935870000       22.0315460000       -7.5467360000
  O        23.1866590000        7.9244090000        9.6350600000
  H        23.2111840000        8.7271800000       10.1676880000
  H        22.4613210000        7.9688210000        9.0870100000
  O        16.5460320000       -2.6820210000        9.6365420000
  H        15.7123440000       -2.4059750000        9.1447650000
  H        16.2764340000       -3.5753550000        9.9040600000
  O        -2.3919370000       23.7601800000       -5.0207660000
  H        -2.1769700000       23.3448050000       -4.1345820000
  H        -2.6226230000       24.6600420000       -4.6713870000
  O        -0.4546390000        9.9545250000       -1.1311680000
  H        -0.4436720000       10.0590330000       -2.1262300000
  H        -0.6783040000       10.8794890000       -0.8692210000
  O        26.7332230000        2.0998000000       -3.9137680000
  H        25.9012410000        2.5643610000       -3.9955550000
  H        26.5199090000        1.3606760000       -3.3559330000
  O        17.2774370000       23.1640400000       -4.7905450000
  H        17.6085000000       23.7904340000       -4.1403770000
  H        18.0575920000       23.0680710000       -5.4117130000
  O         0.2193370000        9.9120660000        3.2375430000
  H        -0.7283200000        9.8508630000        2.9430290000
  H         0.6434350000        9.3242390000        2.5393570000
  O         3.8730990000       14.6794770000      -13.0494030000
  H         4.4600620000       15.4414020000      -12.7845560000
  H         3.3943440000       15.1334440000      -13.8126270000
  O        21.8144000000        4.1375900000       -4.2088550000
  H        21.8546850000        4.8647080000       -3.5023720000
  H        21.4773030000        3.4198840000       -3.6107450000
  O         2.8410410000        0.5823230000       -9.9834900000
  H         2.5643420000        1.4465610000      -10.4691890000
  H         2.8475350000        1.0292380000       -9.0863900000
  O        20.9503480000        1.9988400000       -2.8094300000
  H        21.5902230000        1.6612850000       -2.1244650000
  H        21.0194400000        1.2294780000       -3.4529810000
  O        10.9889850000       -0.7279160000      -10.2649590000
  H        11.2312420000        0.2337980000      -10.2808070000
  H        10.0230660000       -0.6411700000      -10.0725240000
  O        -1.8492950000       22.4525700000       -2.5956870000
  H        -2.1830330000       21.4952930000       -2.6582730000
  H        -0.8952660000       22.2314150000       -2.5370080000
  O        26.2708610000       -3.5249120000       -5.9899350000
  H        25.7035900000       -3.1429510000       -6.7035160000
  H        26.4442160000       -2.7510490000       -5.4994660000
  O        19.2200760000       26.0358920000       -6.8565860000
  H        18.7442570000       26.8007740000       -6.4772130000
  H        20.1671500000       26.3561670000       -6.6679930000
  O        15.6382410000       11.7230010000      -11.2877230000
  H        14.9674130000       11.9636490000      -11.9906910000
  H        15.6455670000       12.6191620000      -10.7504480000
  O         8.7877180000       13.3262520000      -13.8053610000
  H         7.9909730000       13.6297910000      -14.4048700000
  H         9.1424340000       14.2221230000      -13.6875200000
  O        17.9250850000       26.4188040000      -13.8753810000
  H        17.6216980000       26.2081810000      -12.9673390000
  H        17.2024780000       26.1554280000      -14.3739350000
  O        21.1157110000        4.5765420000       -6.7802660000
  H        21.3458630000        4.4476560000       -5.7938310000
  H        21.0865190000        3.6600950000       -7.0922620000
  O        21.3216290000       -1.2905220000       -8.7086040000
  H        21.3826890000       -2.1186180000       -8.2377840000
  H        20.8949240000       -0.7640500000       -8.0331830000
  O        -1.7432280000        4.9798570000      -10.2526210000
  H        -1.4172400000        5.3734460000      -11.1183590000
  H        -1.0558680000        4.2783420000      -10.1098380000
  O        20.6837900000       11.7770250000       -0.8065700000
  H        21.2291550000       11.7836470000        0.0049310000
  H        21.0835990000       12.5863150000       -1.2674070000
  O        15.2423580000        7.2205400000        1.8994650000
  H        15.6246200000        6.7102600000        1.1392980000
  H        14.3702410000        7.4370320000        1.3915990000
  O         1.4928970000       26.0561450000       -2.7232700000
  H         1.1552430000       26.5873200000       -1.9534570000
  H         1.8596430000       26.7744310000       -3.2245500000
  O        26.6223810000        7.2490010000      -13.6586890000
  H        25.7767870000        7.5163250000      -13.2259440000
  H        26.3733730000        7.2657950000      -14.5987630000
  O        12.9781570000        1.1397460000       -5.4154700000
  H        13.9160590000        1.3303650000       -5.1591600000
  H        12.4551200000        1.4337610000       -4.6263430000
  O        20.6452620000       -1.4691870000       -0.6834550000
  H        19.8936410000       -1.9649620000       -0.3891400000
  H        20.4562510000       -0.5676790000       -0.5888910000
  O        -1.1398790000        5.7885120000      -12.7233850000
  H        -1.3873710000        6.7222290000      -12.9620490000
  H        -0.1394120000        5.7502440000      -12.9418900000
  O        27.7105770000       -4.1457110000       10.3658080000
  H        27.4422150000       -4.0243880000        9.4607730000
  H        27.9480740000       26.8570920000       10.3328450000
  O         7.1049600000       -2.1183700000        2.9805150000
  H         6.1511950000       -2.2046350000        2.6650360000
  H         6.9851990000       -1.5310710000        3.6673330000
  O         7.0106430000        1.7987160000       -3.3111670000
  H         7.6060560000        1.0646840000       -3.5396390000
  H         6.1795610000        1.3064740000       -3.1791820000
  O         9.7956480000       -4.8315420000      -11.8537070000
  H         9.5933250000       -4.5205540000      -10.9915430000
  H         9.9281520000       -5.8120010000      -11.7252580000
  O        24.9326760000       16.5092390000        6.0938970000
  H        25.3381370000       16.1258930000        5.2493200000
  H        25.5825560000       17.2013930000        6.2819780000
  O        22.8482630000        6.4048220000        0.1286470000
  H        23.6576210000        6.3554530000        0.6832410000
  H        22.5585820000        5.4235790000        0.1953210000
  O        24.4053520000        3.3991650000       -5.0504440000
  H        24.8594470000        4.2876780000       -5.1954100000
  H        23.5313050000        3.6506950000       -4.7793490000
  O         3.1538600000        3.2101200000      -13.9587230000
  H         3.8365120000        3.8394450000      -13.9149130000
  H         3.5527470000        2.4148390000      -14.3265160000
  O         9.9474010000        3.2914340000        2.7871240000
  H        10.0174860000        3.8876610000        3.5785500000
  H         8.9713390000        3.4496990000        2.6599010000
  O         8.2884250000       -0.7992310000       -2.6135300000
  H         8.0908750000       -0.3762130000       -1.7729060000
  H         9.2160040000       -0.4601500000       -2.7516750000
  O         3.8307480000        0.4694650000      -14.1754720000
  H         3.1783350000       -0.1048930000      -14.5246680000
  H         3.8585680000        0.1476000000      -13.2039190000
  O        27.8503970000        3.7639210000       -1.5580260000
  H        28.7494720000        3.5812380000       -1.1800140000
  H        27.9751640000        3.2269850000       -2.3588640000
  O        13.2579170000       11.7746730000        0.7567470000
  H        13.0532910000       11.9148650000        1.7133260000
  H        12.4914460000       11.2156190000        0.4811150000
  O         5.1720160000        7.8045490000      -10.5213000000
  H         6.0547290000        8.1492120000      -10.7352090000
  H         4.5677250000        8.4417780000      -10.8957370000
  O        10.5325660000       15.5127280000      -10.7798560000
  H        10.1591070000       16.3122250000      -10.3988960000
  H         9.8770990000       14.8774350000      -10.4575410000
  O        27.3744470000        2.4356220000        7.5344200000
  H        26.5521970000        2.7441540000        7.9967860000
  H        26.9487670000        1.7098730000        7.0186050000
  O        19.8812010000       11.0910340000        6.3130780000
  H        20.1722470000       10.2731300000        6.8197240000
  H        20.6819550000       11.4107070000        5.8144140000
  O         9.5864050000       -3.9398370000       -9.2979250000
  H         8.8604540000       -3.2329070000       -9.1802640000
  H        10.2544070000       -3.5215310000       -8.6174840000
  O        16.6987710000       14.5353520000       -1.9715260000
  H        16.2367290000       14.1467570000       -1.2051260000
  H        15.9405050000       15.0548240000       -2.3487280000
  O         6.2794400000        8.6776920000        7.8422480000
  H         7.2117250000        9.0732270000        7.6300700000
  H         6.3714110000        7.7115630000        7.8775370000
  O         7.4364360000       18.6023080000        3.3607270000
  H         6.7634240000       18.6209070000        2.6209160000
  H         6.9458810000       19.0611920000        4.0595400000
  O         6.3371240000       25.9476890000       -2.9544820000
  H         6.7456440000       25.1770650000       -2.5090720000
  H         6.6291030000       25.8226320000       -3.9289930000
  O         7.4480750000       -2.2944100000      -13.8424520000
  H         7.3148600000       -3.1022460000      -14.3458650000
  H         8.3332870000       -2.5742020000      -13.4932400000
  O        12.7880630000       19.3286630000        4.1827010000
  H        13.3959430000       18.5408590000        4.1818520000
  H        11.8821390000       18.9541760000        4.0789070000
  O         4.0659460000       -0.6604610000        7.3527890000
  H         4.1605710000       -1.2712990000        8.0952840000
  H         3.1228070000       -0.4053940000        7.4262280000
  O        16.9980530000       -1.4601230000      -12.0895850000
  H        17.2021710000       -0.6313370000      -12.6486820000
  H        17.6618900000       -2.0607960000      -12.4526270000
  O        25.2767120000       21.5230600000      -13.6126610000
  H        26.1909540000       21.8948800000      -13.5453180000
  H        24.7939740000       22.3735640000      -13.3911220000
  O         5.6273550000       -6.5161220000        5.4073280000
  H         6.6154150000       25.4726470000        5.2200440000
  H         5.3934600000       -6.0969580000        4.5465820000
  O         2.3572810000       17.2763080000       -3.4610440000
  H         2.3142750000       17.0854210000       -4.3801760000
  H         1.4115980000       17.2779450000       -3.2878030000
  O        22.9040890000       18.0298810000        5.0386100000
  H        23.0086330000       18.9047410000        5.4172590000
  H        23.5111480000       17.5590720000        5.7005920000
  O         6.9243120000        5.7469750000        0.7324570000
  H         6.0369450000        6.0910430000        0.5387830000
  H         6.8649170000        5.0300320000        0.0107230000
  O        25.9168030000        4.7677050000       11.0405380000
  H        25.2047840000        4.5918470000       11.6596020000
  H        26.7459790000        4.3501940000       11.3047640000
  O         4.6573260000       -2.2391560000       -0.7789740000
  H         4.4943850000       -3.0971830000       -1.2659210000
  H         5.6427400000       -2.1813800000       -1.0033180000
  O        17.3125670000       20.2606300000        2.5596750000
  H        16.3663180000       20.4599290000        2.3616600000
  H        17.5108490000       19.7960150000        1.7292230000
  O        21.9401050000       25.3120860000       -0.7299920000
  H        21.1457610000       25.4489780000       -1.2836880000
  H        21.8115600000       25.9584670000       -0.0550670000
  O        20.2425710000        8.5857600000       -4.8092560000
  H        20.7759700000        9.0460510000       -4.0845780000
  H        19.3512360000        8.9732070000       -4.5670770000
  O        10.8165030000       -0.9271670000       10.4142420000
  H        10.5739430000       -1.8434020000       10.2706010000
  H        10.1851540000       -0.7412310000       11.1827730000
  O         4.2555720000       26.6661030000        9.9952880000
  H         5.1263070000       26.3227390000        9.6601700000
  H         4.5160020000       27.1386090000       10.7526100000
  O        -0.6007500000        1.5422570000       -0.3991870000
  H        -1.3745510000        1.4518720000       -1.0237900000
  H        -1.0613200000        2.1395040000        0.2648970000
  O         6.0286420000        8.1104940000      -13.8123730000
  H         6.7550300000        8.5453330000      -13.3192320000
  H         6.5293390000        7.3774820000      -14.2752570000
  O         3.3847640000       -5.4343030000       -6.7315960000
  H         4.3372240000       -5.1457120000       -6.8749280000
  H         3.1948120000       -4.9472630000       -5.9605000000
  O        27.9640080000       15.4577870000      -14.2333060000
  H        27.7169720000       14.7122080000      -13.6533070000
  H        27.0811120000       15.8890800000      -14.3789480000
  O        14.1952940000       12.1053780000        6.2688570000
  H        15.1840530000       12.2811200000        6.2777670000
  H        14.1878680000       11.1417680000        6.5472500000
  O        12.2230070000        8.1465970000       -1.9043870000
  H        12.5028100000        9.0942310000       -2.0209970000
  H        12.0191870000        7.8808170000       -2.8133920000
  O         5.4395870000       12.6650380000      -14.0225280000
  H         4.6885010000       13.2739370000      -13.7813080000
  H         5.9793290000       13.3209780000      -14.5175730000
  O        16.8869460000       -3.3369360000       -5.1536740000
  H        16.7982140000       -3.7237110000       -6.0498290000
  H        16.3462050000       -2.4953800000       -5.2971560000
  O        22.9929330000        5.6587480000      -13.2404650000
  H        22.5715810000        6.4996630000      -13.3387010000
  H        22.5195770000        5.1921610000      -13.9548490000
  O         9.3542620000       18.5811750000       -1.1516760000
  H         9.1798080000       18.0194020000       -0.3446520000
  H         8.4463790000       18.7156070000       -1.4608560000
  O        23.4337500000       -2.5043620000      -11.5507140000
  H        24.0887510000       -2.0256690000      -10.9997580000
  H        23.6497730000       -2.1952620000      -12.4470680000
  O         9.4395130000       17.6422790000       -9.4766520000
  H        10.1056750000       18.3365690000       -9.1329720000
  H         8.9193360000       17.5753360000       -8.6049790000
  O        18.0631810000       13.1548790000        7.4328320000
  H        18.1899490000       12.5142920000        6.6825450000
  H        19.0435750000       13.2029840000        7.6920660000
  O         6.1055290000       13.3152110000        7.9294070000
  H         5.4645710000       12.6232890000        7.8731600000
  H         7.0176800000       12.9445540000        7.8515280000
  O         9.7534250000        1.4954680000        5.0774820000
  H         9.8325210000        1.6093100000        4.1362370000
  H         8.7974610000        1.5392620000        5.1761280000
  O        20.9909190000       14.1021510000        6.3790300000
  H        21.6757680000       13.8702820000        6.9487350000
  H        20.9101430000       13.2740040000        5.8333740000
  O        25.4453260000       21.1821590000        8.8408250000
  H        25.5757580000       22.0084170000        8.2881460000
  H        24.4909150000       21.1898330000        9.0130210000
  O         6.8805130000        3.7825670000       -0.9830410000
  H         6.5032460000        3.1120860000       -0.4074450000
  H         6.7727710000        3.3494650000       -1.8191260000
  O         1.1810380000       -0.7763360000        4.1457570000
  H         0.2949830000       -0.9137510000        4.5872850000
  H         1.1212120000       -1.3355690000        3.3512450000
  O        -1.1093960000       -0.7339010000        5.4743480000
  H        -1.8566020000       -0.3016340000        5.0033840000
  H        -1.6252480000       -1.1631970000        6.2428800000
  O         8.7991530000       -3.7541520000        1.4761780000
  H         8.3360790000       -3.2327790000        2.1689060000
  H         9.7157330000       -3.2928490000        1.5815470000
  O        15.2153840000       20.4653550000        9.7308320000
  H        15.0872380000       19.5403980000        9.3012190000
  H        15.3834790000       20.1378940000       10.6098380000
  O        18.4504050000       23.4739530000      -15.2300760000
  H        18.0880390000       22.5698780000      -15.5813330000
  H        17.6283360000       23.9429970000      -15.0498570000
  O         8.2689790000        0.2920760000       -9.6115780000
  H         7.7389900000        0.8557610000      -10.2750020000
  H         8.2231530000        0.8683120000       -8.7681340000
  O        15.4013450000       26.2669010000       -2.5027370000
  H        15.2555080000       -4.7814490000       -2.3333980000
  H        15.1317190000       25.9217830000       -1.6088280000
  O        12.5090830000       20.3546750000       -3.4234150000
  H        12.2770040000       19.7065600000       -2.7511900000
  H        13.3946900000       20.6409510000       -3.1288730000
  O         7.1237810000        1.4418200000        8.6684090000
  H         7.3707370000        1.5343610000        7.7036810000
  H         6.2262280000        1.8065040000        8.5564580000
  O        18.6743140000       -3.1096720000        0.3017080000
  H        17.7950270000       -3.1754390000        0.7566460000
  H        19.2598930000       28.8204250000        1.0629350000
  O         1.4367130000       12.5757650000        3.0722110000
  H         0.9000410000       11.7158950000        3.0616470000
  H         1.6381700000       12.6795830000        3.9713990000
  O         0.7531640000        2.4879960000       -5.0787200000
  H         0.4954580000        2.8834680000       -5.9695440000
  H         0.9548050000        1.5745600000       -5.3494580000
  O        14.8762440000        8.5067560000        4.2314350000
  H        15.3655560000        7.7730110000        4.7852100000
  H        14.8882860000        7.9820510000        3.3788770000
  O        16.2059820000        6.0948510000      -11.9896240000
  H        16.7495880000        6.3594140000      -11.2156230000
  H        15.5104230000        6.8098980000      -11.9141260000
  O         0.8558490000       16.0542550000      -13.2200390000
  H         1.5462010000       15.8662660000      -12.5731770000
  H         0.1932820000       15.3265250000      -13.0258480000
  O        21.6695370000        3.8553680000        0.0722710000
  H        20.7301540000        3.6581020000        0.0201940000
  H        22.0522560000        2.9953380000        0.0127190000
  O         5.5999830000       -2.3235230000       -5.8786750000
  H         6.5341200000       -2.1667120000       -5.5060390000
  H         5.8154250000       -3.2581810000       -6.2757760000
  O        15.9452970000        1.5653510000        9.1231360000
  H        15.7660810000        1.2678410000       10.0367330000
  H        16.9310720000        1.5870160000        9.1133930000
  O         5.5233820000       19.5060020000        1.3871820000
  H         5.7038820000       20.2353570000        0.7230420000
  H         5.1180750000       18.8583660000        0.7860690000
  O         5.4202760000       20.5343170000        9.2892730000
  H         6.0658020000       21.2253480000        9.4625120000
  H         5.7741660000       19.8001750000        9.8026280000
  O        14.7991500000       -0.8214040000       -8.6642510000
  H        14.5790410000       -0.9354410000       -9.6192130000
  H        15.1318980000        0.0233260000       -8.6685720000
  O         8.7783650000       27.4711800000       -2.1334220000
  H         7.8513000000       -4.6088100000       -2.4653400000
  H         8.7178270000       -3.6756070000       -1.6638540000
  O         0.5804530000       19.7172660000       -9.7623930000
  H         0.8160200000       19.5928150000      -10.7790280000
  H         0.0031300000       20.4897140000       -9.9361020000
  O        -2.7194080000       -4.2764880000        2.8203180000
  H        -2.7918880000       -4.6917820000        3.7572000000
  H        -3.2503450000       -4.9218720000        2.3257960000
  O         7.6109630000        6.2184150000      -14.9076070000
  H         7.6624400000        5.3311640000      -14.4437190000
  H         8.4213350000        6.2010090000      -15.4053290000
  O        20.7763820000       -0.3115970000       -4.1910680000
  H        20.1008740000       -0.3756330000       -3.4670820000
  H        21.1035610000       -1.2623550000       -4.2666850000
  O        14.6383530000        4.4133380000       -3.7479900000
  H        14.4406580000        5.2580570000       -3.2645430000
  H        15.5118460000        4.6096420000       -4.0931780000
  O        14.3094520000        2.8482490000       11.6172400000
  H        13.5122890000        2.3301200000       11.4154020000
  H        14.8452520000        2.0983760000       11.9354440000
  O        19.1428740000       -5.1671610000       -1.3007940000
  H        19.4015120000       27.3409100000       -2.0924740000
  H        18.8433840000       -4.4219300000       -0.6914230000
  O         1.6127330000        3.6081210000       -1.4090270000
  H         0.6719350000        3.2887010000       -1.4370230000
  H         1.8036250000        3.5468770000       -0.3933970000
  O        22.5666220000       23.0558240000       -6.5757890000
  H        22.5730040000       22.2944030000       -5.8981030000
  H        21.6345160000       23.3724380000       -6.4006020000
  O        -2.0452400000       -5.0226640000       -2.3904810000
  H        -2.4252700000       -4.0887380000       -2.2479270000
  H        -1.2517290000       -4.9443890000       -1.8435840000
  O         7.3006800000        4.1539480000        2.7391230000
  H         6.9554050000        4.8762010000        2.1939020000
  H         6.4286950000        3.9223800000        3.1642660000
  O        27.3336640000        2.4912510000        2.7891170000
  H        27.9559190000        1.9649840000        3.3155600000
  H        26.6163830000        1.7622130000        2.6595150000
  O        19.4651620000       10.0646510000        3.3943050000
  H        19.4714740000        9.0702910000        3.4699370000
  H        19.5537300000       10.2678480000        4.3343310000
  O        -0.7843770000       12.7687460000       -0.9816500000
  H        -0.9379960000       13.0371440000        0.0080720000
  H         0.0444050000       13.2268700000       -1.1690490000
  O         8.6568250000       14.4713490000        3.3155880000
  H         8.8179500000       13.5280650000        3.0297490000
  H         9.3230670000       15.0880260000        2.9428980000
  O         8.2727420000       25.8269690000       -8.4937480000
  H         8.7571820000       26.6440660000       -8.7661370000
  H         8.9668140000       25.4409870000       -7.8431640000
  O        28.0460490000       25.2175270000      -12.8172430000
  H        27.1443560000       25.4481140000      -12.4019780000
  H        -3.4465400000       25.4996220000      -11.8989160000
  O        -3.2261990000       27.6775170000       -7.9528170000
  H        -4.1946810000       27.7207490000       -8.0430730000
  H        -3.1321220000       26.7377300000       -7.6957930000
  O        -3.0479380000       -1.5237210000        2.4563700000
  H        -2.8236270000       -2.4513490000        2.6333160000
  H        -2.5345560000       -1.3502590000        1.6192120000
  O        10.7653300000       -0.1475350000       -3.4329840000
  H        10.3224220000       -0.1289460000       -4.2775580000
  H        11.4262770000       -0.8469710000       -3.5596970000
  O        14.0654950000       22.2717900000      -14.1691790000
  H        14.7859510000       21.5916350000      -14.2580390000
  H        14.2577600000       22.7081170000      -15.0422110000
  O        11.0357050000       10.2722230000        0.3309630000
  H        11.5636740000       10.3048890000       -0.5694170000
  H        10.2207560000       10.7089580000       -0.0501310000
  O        -3.4823350000       23.1840820000        8.5865510000
  H        -2.6278190000       22.7972110000        8.3226940000
  H        -3.9023220000       22.4278470000        9.0629330000
  O         4.7842390000       22.2715850000        5.4145920000
  H         5.1113020000       22.7320920000        4.6442530000
  H         5.2277510000       22.8171350000        6.1154960000
  O        21.6238540000       -3.0462670000      -15.4956050000
  H        21.0066530000       -3.8167950000      -15.2458230000
  H        20.9420150000       -2.3422020000      -15.2861860000
  O        -1.6415980000       15.9114040000       -8.4246510000
  H        -1.9433180000       15.7222620000       -7.5178420000
  H        -2.4658830000       15.6214990000       -8.9339490000
  O        22.4760270000        6.6109710000       -7.9428150000
  H        22.8627430000        6.9741550000       -7.1598230000
  H        21.9938580000        5.8137690000       -7.6050580000
  O        14.8427680000        1.9747230000      -11.8326190000
  H        13.9635550000        2.0923740000      -12.3446460000
  H        15.4157830000        2.4429340000      -12.4787290000
  O        21.1067700000       -0.7902970000      -11.2046970000
  H        21.7371830000       -1.4929450000      -11.5387840000
  H        21.1229130000       -1.0282690000      -10.2449580000
  O        11.7761510000        1.7130250000       10.5590660000
  H        11.3518070000        2.1273530000       11.3494280000
  H        11.5657100000        0.7410110000       10.5211670000
  O        17.9147360000       20.9270760000      -11.2152510000
  H        18.3434660000       20.0368940000      -11.4167940000
  H        18.7871510000       21.4401110000      -11.2239070000
  O        13.1588890000       16.8555070000      -13.4306520000
  H        12.3386090000       16.5564060000      -13.8565830000
  H        13.0615830000       17.8301160000      -13.5176820000
  O        10.8980810000        7.4419140000       10.3844300000
  H        10.3143750000        7.1265790000        9.6226780000
  H        11.6108660000        6.7340080000       10.3076090000
  O        27.0110050000       14.1009320000       -0.6482710000
  H        26.2895070000       13.4404820000       -0.8757140000
  H        26.4208740000       14.9335150000       -0.6306270000
  O         6.0700180000       -2.7577900000      -11.4632370000
  H         6.3795280000       -2.5534590000      -12.4297700000
  H         6.2702010000       -3.7195260000      -11.4893850000
  O        -2.5961370000       19.8269020000       -0.4044360000
  H        -2.7784750000       19.9134060000       -1.3584620000
  H        -1.6354850000       19.6778790000       -0.4275780000
  O        10.2342000000        1.9387690000        0.3930080000
  H        10.1026130000        2.4802990000        1.2653820000
  H        10.6388980000        2.6819730000       -0.1017750000
  O         7.4508220000       12.7974600000       -6.8362320000
  H         8.2148730000       12.3441170000       -6.4269560000
  H         7.1152820000       13.3748530000       -6.1155210000
  O        18.3030930000       18.7467230000        6.1456650000
  H        18.9527020000       18.0187490000        6.3036490000
  H        17.4721680000       18.2629490000        6.2671190000
  O         9.5452010000       11.3871240000      -10.3422280000
  H         9.0030190000       12.0371380000       -9.8121670000