#     Step Nr.          Time[fs]        Kin.[a.u.]          Temp[K]            Pot.[a.u.]        Cons Qty[a.u.]        UsedTime[s]
         0            0.000000         0.896367083       300.000000000     -3605.588707611     -3604.691865506         0.000000000
         1            1.000000         0.911580124       305.091566088     -3605.599179806     -3604.686708090        69.572299475
         2            2.000000         0.970525811       324.819762697     -3605.622062205     -3604.650206673        10.974671129
         3            3.000000         1.007924634       337.336562317     -3605.647027165     -3604.637296396        10.724754820
         4            4.000000         1.017099540       340.407259375     -3605.654854036     -3604.635436337        10.072803609
         5            5.000000         1.013643996       339.250742755     -3605.650961489     -3604.634458858        10.386657437
         6            6.000000         1.018321581       340.816257246     -3605.657770191     -3604.636022292         8.850157917
         7            7.000000         1.035010282       346.401703724     -3605.677524043     -3604.638485453        10.538041569
         8            8.000000         1.059223590       354.505517958     -3605.705852102     -3604.641953598         8.645801902
         9            9.000000         1.071370420       358.570871328     -3605.721397316     -3604.644655927        11.226058999
        10           10.000000         1.060907411       355.069066560     -3605.709643212     -3604.642627538         9.296896365
        11           11.000000         1.056237700       353.506187443     -3605.703392610     -3604.640275788        10.088236626
        12           12.000000         1.075857794       360.072725208     -3605.725226145     -3604.641674462         8.108164661
        13           13.000000         1.091300146       365.241037972     -3605.742290311     -3604.642425431         9.252717353
        14           14.000000         1.082803092       362.397207224     -3605.733716330     -3604.641429233         8.653053254
        15           15.000000         1.058527378       354.272506572     -3605.711779321     -3604.642819572        10.276579345
        16           16.000000         1.030044905       344.739870006     -3605.683316388     -3604.641877772         8.166832818
        17           17.000000         1.027107714       343.756838161     -3605.683216591     -3604.643738407        10.710938998
        18           18.000000         1.048387069       350.878704209     -3605.710760630     -3604.648988585         8.589419905
        19           19.000000         1.055008330       353.094736421     -3605.719208709     -3604.649754556         9.496159671
        20           20.000000         1.044354736       349.529145825     -3605.707291071     -3604.647398097         8.565755853
        21           21.000000         1.039850749       348.021731830     -3605.701248079     -3604.644743455         9.217583993
        22           22.000000         1.054933460       353.069678588     -3605.716397225     -3604.643658537         8.689453723
        23           23.000000         1.077070227       360.478507292     -3605.739095876     -3604.643015531         9.024138441
        24           24.000000         1.088869202       364.427439143     -3605.751013269     -3604.641872315         8.655575266
        25           25.000000         1.086052782       363.484827610     -3605.748186391     -3604.640555451         9.514019884
        26           26.000000         1.077297770       360.554662555     -3605.739898981     -3604.639685632         7.976906596
        27           27.000000         1.075197673       359.851793011     -3605.738621643     -3604.639142640         9.848192537
        28           28.000000         1.090450304       364.956609275     -3605.756677302     -3604.640537620         8.025953287
        29           29.000000         1.116797056       373.774453772     -3605.786050052     -3604.642091662         9.253179703
        30           30.000000         1.137564064       380.724845608     -3605.809237900     -3604.642966928         8.507903529
        31           31.000000         1.137925656       380.845864726     -3605.809756793     -3604.641518524         9.114623364
        32           32.000000         1.125540452       376.700731230     -3605.796460541     -3604.638966301        10.076654507
        33           33.000000         1.118445363       374.326116116     -3605.790079650     -3604.638014258         9.145486414
        34           34.000000         1.124681670       376.413310250     -3605.797906750     -3604.637903814         8.523689840
        35           35.000000         1.137999145       380.870460384     -3605.816713305     -3604.641641726         9.721323233
        36           36.000000         1.130561554       378.381215351     -3605.812967247     -3604.643542326         8.102705389
        37           37.000000         1.101905459       368.790470003     -3605.785146819     -3604.642585194         9.580066122
        38           38.000000         1.088741582       364.384726847     -3605.773812840     -3604.642634273         8.983803425
        39           39.000000         1.105896112       370.126078985     -3605.794113568     -3604.643979948         9.614703313
        40           40.000000         1.129762238       378.113696779     -3605.820745512     -3604.644893841         8.069958000
        41           41.000000         1.125497570       376.686379323     -3605.817973208     -3604.644497990         9.272131750
        42           42.000000         1.085008591       363.135353319     -3605.774890519     -3604.640037857         8.107186317
        43           43.000000         1.052699617       352.322046488     -3605.740572973     -3604.636219897         8.952658212
        44           44.000000         1.062704993       355.670688861     -3605.755520101     -3604.639375658         8.443943614
        45           45.000000         1.078663673       361.011808636     -3605.775411283     -3604.641505641         9.749844944
        46           46.000000         1.070859663       358.399928934     -3605.769105144     -3604.641198693         7.944868753
        47           47.000000         1.051959409       352.074310450     -3605.751913485     -3604.641132843         9.335982898
        48           48.000000         1.050127237       351.461111283     -3605.753022701     -3604.642330382         8.008652193
        49           49.000000         1.077096717       360.487373280     -3605.786184804     -3604.646773387         9.150370097
        50           50.000000         1.106957863       370.481430404     -3605.823500593     -3604.652442849         8.352310609
        51           51.000000         1.100869774       368.443842204     -3605.821308235     -3604.654540695         9.422626840
        52           52.000000         1.066876049       357.066676020     -3605.786961554     -3604.652431819         8.228866834
        53           53.000000         1.047009170       350.417543289     -3605.769806689     -3604.653448615         9.421674123
        54           54.000000         1.046231110       350.157138874     -3605.771962549     -3604.654726091         8.009632541
        55           55.000000         1.045685451       349.974515370     -3605.773386659     -3604.655063873         9.536206190
        56           56.000000         1.033169881       345.785750266     -3605.762377728     -3604.654972734         7.970251767
        57           57.000000         1.012857195       338.987412997     -3605.744536358     -3604.655897963         9.621646987
        58           58.000000         1.016314719       340.144591893     -3605.751139567     -3604.657540131         8.071261048
        59           59.000000         1.050173992       351.476759416     -3605.786781364     -3604.657820432         9.492232649
        60           60.000000         1.067158767       357.161297175     -3605.802921737     -3604.655459295         8.429128315
        61           61.000000         1.054568713       352.947603565     -3605.788101056     -3604.651727275         9.434322124
        62           62.000000         1.054150995       352.807800102     -3605.790598351     -3604.653169835         8.647905212
        63           63.000000         1.065903948       356.741328802     -3605.808319789     -3604.657677281         9.642786929
        64           64.000000         1.059608136       354.634219350     -3605.806323417     -3604.660528683         8.569657341
        65           65.000000         1.043094543       349.107378926     -3605.791735953     -3604.661039441         9.392037122
        66           66.000000         1.039008223       347.739751856     -3605.783719272     -3604.655726879         8.342830241
        67           67.000000         1.050206794       351.487737689     -3605.791574703     -3604.651016036         9.413478220
        68           68.000000         1.068455064       357.595147632     -3605.810494818     -3604.650316902         7.979076717
        69           69.000000         1.072819341       359.055802517     -3605.814688812     -3604.648772444         9.678812465
        70           70.000000         1.059328432       354.540607040     -3605.799424869     -3604.645640655         7.867118813
        71           71.000000         1.052973395       352.413675695     -3605.792130732     -3604.643366434         8.981776284
        72           72.000000         1.066644859       356.989300149     -3605.808331463     -3604.644567056         8.104159785
        73           73.000000         1.073437829       359.262800809     -3605.816233677     -3604.644342506         9.786870845
        74           74.000000         1.058451591       354.247141837     -3605.800487878     -3604.642259772         8.234790891
        75           75.000000         1.038154256       347.453942334     -3605.779605856     -3604.640381287         8.801741716
        76           76.000000         1.036623252       346.941539363     -3605.777806700     -3604.638843145         7.745552056
        77           77.000000         1.056998767       353.760904754     -3605.799782593     -3604.639171530         8.767033765
        78           78.000000         1.072056804       358.800593454     -3605.815693238     -3604.638735165         7.585338870
        79           79.000000         1.062048725       355.451046187     -3605.804968066     -3604.636726678         9.509621723
        80           80.000000         1.040586695       348.268041675     -3605.781354019     -3604.633304000         7.776360001
        81           81.000000         1.040566284       348.261210501     -3605.781548335     -3604.632265809         9.385589691
        82           82.000000         1.065518857       356.612444885     -3605.810764069     -3604.635264748         7.657857513
        83           83.000000         1.076477302       360.280064511     -3605.824149864     -3604.636404381         9.144265760
        84           84.000000         1.058961157       354.417685628     -3605.805351685     -3604.633833732         7.981558887
        85           85.000000         1.042560067       348.928498121     -3605.788372895     -3604.631985612         8.738831773
        86           86.000000         1.051784841       352.015885274     -3605.798882822     -3604.632004737         7.755220255
        87           87.000000         1.076477535       360.280142797     -3605.826442485     -3604.633582533         8.871824928
        88           88.000000         1.085859101       363.420005772     -3605.837465285     -3604.633905596         7.854364332
        89           89.000000         1.068664088       357.665104536     -3605.818933931     -3604.631245105         9.086277097
        90           90.000000         1.051743224       352.001956661     -3605.801798978     -3604.629719981         8.270061089
        91           91.000000         1.053271365       352.513401481     -3605.804746535     -3604.629832945         9.100752542
        92           92.000000         1.066953768       357.092687124     -3605.821101566     -3604.631183954         8.317756537
        93           93.000000         1.071536442       358.626436499     -3605.827616300     -3604.631774110         9.563748337
        94           94.000000         1.060971768       355.090605721     -3605.816768164     -3604.630142297         8.007319935
        95           95.000000         1.053309454       352.526149344     -3605.810812589     -3604.630503618         9.282590095
        96           96.000000         1.054120560       352.797613970     -3605.813279513     -3604.630811028         8.226892972
        97           97.000000         1.060905192       355.068323685     -3605.822045913     -3604.631431626         9.567590971
        98           98.000000         1.065865416       356.728432793     -3605.829351295     -3604.632398379         7.850038525
        99           99.000000         1.061015028       355.105084265     -3605.824621099     -3604.631129187         9.268703233
       100          100.000000         1.055816601       353.365252115     -3605.819950972     -3604.630264397         7.641963182
       101          101.000000         1.052915024       352.394139726     -3605.817215183     -3604.629033075         8.983406503
       102          102.000000         1.050601264       351.619760647     -3605.814717009     -3604.627446160         7.787579538
       103          103.000000         1.045378442       349.871764140     -3605.809005900     -3604.625551996         8.974473810
       104          104.000000         1.035786158       346.661377179     -3605.798189192     -3604.622924321         8.123891182
       105          105.000000         1.027371485       343.845118116     -3605.789314920     -3604.621068178         9.170072177
       106          106.000000         1.021997854       342.046648006     -3605.784297886     -3604.620033787         8.038653055
       107          107.000000         1.012672269       338.925520969     -3605.775930695     -3604.619608590         9.144402891
       108          108.000000         0.996083304       333.373454640     -3605.758773354     -3604.617673612         7.734715717
       109          109.000000         0.988790994       330.932832902     -3605.751204985     -3604.616049488         8.794757498
       110          110.000000         0.998939401       334.329345685     -3605.764688566     -3604.618038013         8.280204000
       111          111.000000         1.001021519       335.026197897     -3605.768302776     -3604.618216671         8.880379695
       112          112.000000         0.991604250       331.874385590     -3605.758384535     -3604.616368076         7.897183044
       113          113.000000         0.995159995       333.064437683     -3605.763969958     -3604.617056064         8.963897103
       114          114.000000         1.013889219       339.332815131     -3605.786055120     -3604.619056103         7.681553336
       115          115.000000         1.028259489       344.142318965     -3605.801083539     -3604.618332927         9.006328631
       116          116.000000         1.032768374       345.651372289     -3605.806847288     -3604.618187292         8.385957487
       117          117.000000         1.024228035       342.793054625     -3605.799237921     -3604.617713076         9.255530799
       118          118.000000         1.017493160       340.538997875     -3605.791963196     -3604.615772517         7.923431665
       119          119.000000         1.034850552       346.348244402     -3605.814044629     -3604.619083364         8.843652371
       120          120.000000         1.050459423       351.572288854     -3605.834918556     -3604.622903913         7.879334172
       121          121.000000         1.037775232       347.327088930     -3605.823885533     -3604.623097124         8.984431349
       122          122.000000         1.022822317       342.322583002     -3605.810962308     -3604.623679047         8.082434792
       123          123.000000         1.030318787       344.831533692     -3605.823507600     -3604.627278974         9.288464857
       124          124.000000         1.042377247       348.867311368     -3605.838746214     -3604.628988818         8.245453535
       125          125.000000         1.041507778       348.576313639     -3605.838301214     -3604.627925176         9.082063895
       126          126.000000         1.033364729       345.850962849     -3605.830946856     -3604.627222498         7.902550885
       127          127.000000         1.028214770       344.127352338     -3605.826229422     -3604.626165235         9.521883512
       128          128.000000         1.033840729       346.010272631     -3605.834216498     -3604.627029285         7.684293723
       129          129.000000         1.037524018       347.243011677     -3605.839700033     -3604.627317919         9.122570787
       130          130.000000         1.030194884       344.790065472     -3605.833982700     -3604.627412540         7.798514538
       131          131.000000         1.019461085       341.197631275     -3605.823557249     -3604.626210378         9.007939748
       132          132.000000         1.023449971       342.532648899     -3605.830133470     -3604.627287630         8.324936645
       133          133.000000         1.034792076       346.328673415     -3605.845538046     -3604.629823501         9.217605481
       134          134.000000         1.032819823       345.668591280     -3605.845107989     -3604.629825069         8.193460878
       135          135.000000         1.024601878       342.918174088     -3605.837800415     -3604.629195750         8.806117455
       136          136.000000         1.031348705       345.176231204     -3605.847913551     -3604.631018213         7.528236344
       137          137.000000         1.043456770       349.228610549     -3605.866901897     -3604.636334048         8.771156326
       138          138.000000         1.035859846       346.686039472     -3605.863337538     -3604.638790436         7.670608012
       139          139.000000         1.021263460       341.800858032     -3605.849115153     -3604.637598394         9.148191167
       140          140.000000         1.013455829       339.187766281     -3605.840506296     -3604.635244628         7.931568058
       141          141.000000         1.011581009       338.560293586     -3605.839635131     -3604.634701496         9.320677016
       142          142.000000         1.012362026       338.821687507     -3605.843125845     -3604.635864216         7.912413202
       143          143.000000         1.001264630       335.107563413     -3605.832870045     -3604.635166010         9.053664397
       144          144.000000         0.982592120       328.858167143     -3605.814152359     -3604.633605479         7.859185614
       145          145.000000         0.985054564       329.682308463     -3605.820109188     -3604.635601862         8.915587218
       146          146.000000         1.013132282       339.079480155     -3605.852811157     -3604.638709174         7.556767417
       147          147.000000         1.019196136       341.108957131     -3605.857282857     -3604.635573511         8.838092141
       148          148.000000         0.996363375       333.467190298     -3605.830984124     -3604.630575004         7.540465616
       149          149.000000         0.985287433       329.760246127     -3605.820711671     -3604.629873920         9.852818696
       150          150.000000         0.995913877       333.316750202     -3605.832770971     -3604.629806847         7.647329321
       151          151.000000         1.012059606       338.720472552     -3605.852433661     -3604.631805960         9.454150034
       152          152.000000         1.011008526       338.368692598     -3605.855832483     -3604.634725943         7.860398553
       153          153.000000         0.990537278       331.517286925     -3605.831784977     -3604.629635677         9.039160993
       154          154.000000         0.985470673       329.821573703     -3605.820677930     -3604.622103682         7.582656572
       155          155.000000         1.013468381       339.191967220     -3605.851384194     -3604.623307089         9.004392430
       156          156.000000         1.033940659       346.043717480     -3605.874784094     -3604.624691554         8.825753585
       157          157.000000         1.017958084       340.694600646     -3605.856904128     -3604.621242313         8.974838570
       158          158.000000         0.996422228       333.486887296     -3605.835028767     -3604.619376846         7.944573235
       159          159.000000         0.992827667       332.283844098     -3605.833842093     -3604.620279452         9.067993330
       160          160.000000         0.997885197       333.976519962     -3605.841395510     -3604.621271586         7.752874261
       161          161.000000         0.999969855       334.674222334     -3605.846142100     -3604.622426129         8.669496061
       162          162.000000         0.987467607       330.489916041     -3605.832718533     -3604.620006825         7.970743770
       163          163.000000         0.973034479       325.659374751     -3605.816970278     -3604.617217827         9.166310413
       164          164.000000         0.978905838       327.624426429     -3605.825641497     -3604.618556458         7.538225848
       165          165.000000         0.987948371       330.650820365     -3605.836778950     -3604.619184244         8.791484684
       166          166.000000         0.988434127       330.813395395     -3605.837352514     -3604.617801272         7.942492897
       167          167.000000         0.993751168       332.592925308     -3605.843847195     -3604.617506676         8.923714716
       168          168.000000         1.006741076       336.940443866     -3605.860941338     -3604.620126565         7.703070709
       169          169.000000         1.010735301       338.277248416     -3605.866622602     -3604.620315612         9.324574374
       170          170.000000         1.013997431       339.369032093     -3605.870935439     -3604.619860694         8.117605250
       171          171.000000         1.017992283       340.706046267     -3605.876730953     -3604.620147259         8.806114990
       172          172.000000         1.018756056       340.961669297     -3605.878153270     -3604.619284264         7.488364706
       173          173.000000         1.025572252       343.242943168     -3605.887483171     -3604.620266409         8.975195326
       174          174.000000         1.032192816       345.458741838     -3605.896925068     -3604.621540370         7.866929809
       175          175.000000         1.029231603       344.467670545     -3605.895889811     -3604.621909257         9.036405437
       176          176.000000         1.023262150       342.469788087     -3605.891698164     -3604.622130383         7.667279813
       177          177.000000         1.024100285       342.750298650     -3605.896322114     -3604.624358212         8.709636159
       178          178.000000         1.023844903       342.664826333     -3605.899978999     -3604.626706959         7.596992396
       179          179.000000         1.016483456       340.201065503     -3605.894262976     -3604.626789918         8.768736741
       180          180.000000         1.016329939       340.149685886     -3605.897039157     -3604.628159482         7.668836851
       181          181.000000         1.021421558       341.853770815     -3605.904677984     -3604.629139485         9.008822357
       182          182.000000         1.021748414       341.963164392     -3605.905560855     -3604.628120039         8.132391060
       183          183.000000         1.016904303       340.341916454     -3605.901423883     -3604.627251142         8.871182308
       184          184.000000         1.006230657       336.769614758     -3605.889827090     -3604.624761113         7.507928636
       185          185.000000         0.995563175       333.199375844     -3605.877053894     -3604.621104499         9.067647122
       186          186.000000         0.995686603       333.240685061     -3605.876430663     -3604.618816646         8.503687799
       187          187.000000         0.998268257       334.104724326     -3605.879842169     -3604.618104938         8.924616307
       188          188.000000         0.989738953       331.250100186     -3605.869546202     -3604.614802821         7.499318730
       189          189.000000         0.985857225       329.950946594     -3605.865756605     -3604.613371992         8.851451410
       190          190.000000         0.992266493       332.096028029     -3605.875158956     -3604.614843715         7.855478607
       191          191.000000         0.989530074       331.180191553     -3605.871853386     -3604.612752984         8.986767905
       192          192.000000         0.987321611       330.441053459     -3605.869616582     -3604.611209723         8.015453359
       193          193.000000         0.992743048       332.255523672     -3605.877398580     -3604.612055978         8.587055083
       194          194.000000         0.992110552       332.043836871     -3605.877361011     -3604.611135114         8.182114163
       195          195.000000         0.987644033       330.548963180     -3605.873301032     -3604.610031926         8.993949916
       196          196.000000         0.993043499       332.356079762     -3605.881061867     -3604.610885543         7.756951189
       197          197.000000         1.005240001       336.438057604     -3605.897553901     -3604.613661425         8.957683634
       198          198.000000         1.010197805       338.097356825     -3605.905647309     -3604.615263432         8.185398817
       199          199.000000         1.003456688       335.841210832     -3605.901299454     -3604.616122536         9.440867405
       200          200.000000         0.992496967       332.173164147     -3605.889825454     -3604.614086938         7.987937789
       201          201.000000         0.998537392       334.194799502     -3605.896510684     -3604.613215314         8.924071392
       202          202.000000         1.017683121       340.602574707     -3605.918162234     -3604.614185357         7.921499930
       203          203.000000         1.018715292       340.948026060     -3605.918820673     -3604.612256843         9.036855126
       204          204.000000         0.999608216       334.553187696     -3605.897410457     -3604.608408959         7.650723338
       205          205.000000         0.987402989       330.468289410     -3605.883669541     -3604.605352253         9.219057873
       206          206.000000         1.000352267       334.802209757     -3605.899212783     -3604.606426542         7.805541746
       207          207.000000         1.017786089       340.637036478     -3605.919978065     -3604.608214642         8.708291503
       208          208.000000         1.015369949       339.828392270     -3605.918626191     -3604.607720357         8.047993390
       209          209.000000         1.002853038       335.639178435     -3605.905923942     -3604.605984522         9.036115432
       210          210.000000         1.006929764       337.003594734     -3605.912791054     -3604.607229570         7.727523811
       211          211.000000         1.021044641       341.727622839     -3605.931455887     -3604.610218121         9.603233237
       212          212.000000         1.016173224       340.097235863     -3605.929200258     -3604.611260970         8.379265552
       213          213.000000         0.985263362       329.752189818     -3605.897763309     -3604.609185556         9.997460136
       214          214.000000         0.960553445       321.482168398     -3605.872068757     -3604.606698496         8.161878660
       215          215.000000         0.970766142       324.900197800     -3605.887317191     -3604.610250341         9.066670466
       216          216.000000         0.984890768       329.627488477     -3605.906591151     -3604.613902977         8.222288297
       217          217.000000         0.967860557       323.927744050     -3605.890547821     -3604.613399027         9.355652152
       218          218.000000         0.941944114       315.253917327     -3605.863959391     -3604.611275465         7.675466428
       219          219.000000         0.947301324       317.046891288     -3605.872250605     -3604.612784177         8.716406809
       220          220.000000         0.977879663       327.280981600     -3605.907745264     -3604.616257705         7.851009563
       221          221.000000         0.991239530       331.752319647     -3605.924384496     -3604.618065389         9.102228710
       222          222.000000         0.968149308       324.024384507     -3605.900457328     -3604.615765540         7.652388822
       223          223.000000         0.942540179       315.453410881     -3605.872380397     -3604.611876521         8.855640173
       224          224.000000         0.958996928       320.961226529     -3605.891960184     -3604.613594531         7.596159942
       225          225.000000         0.993218094       332.414513971     -3605.931862792     -3604.617839919         9.184930865
       226          226.000000         0.993498332       332.508305365     -3605.932861567     -3604.617097232         7.953156969
       227          227.000000         0.968707903       324.211337712     -3605.906704362     -3604.614287057         9.033819379