     630
 i =        0, time =        0.000, E =     -3605.5887076107
  C         8.8390000000        7.1090000000       12.6020000000
  O         9.7620000000        7.3220000000       11.1110000000
  O         9.6480000000        6.5700000000       13.4690000000
  N         7.7720000000        6.2930000000       12.0830000000
  H         8.3830000000        5.5110000000       11.8960000000
  H         7.2190000000        5.9930000000       12.8960000000
  H         9.0950000000        7.5520000000       10.4750000000
  N         8.3230000000        8.6080000000       12.8080000000
  H         7.3480000000        8.7630000000       12.9310000000
  H         8.8850000000        9.1760000000       13.4710000000
  H         8.4620000000        8.7830000000       11.8070000000
  N         7.7470000000        8.2990000000        9.1710000000
  H         8.0680000000        7.8600000000        8.3410000000
  H         7.7660000000        9.3520000000        9.1810000000
  H         6.8160000000        7.9310000000        9.1970000000
  O         6.8050000000        8.0990000000        2.0490000000
  H         6.8200000000        7.5700000000        2.8520000000
  H         6.4940000000        9.0260000000        2.4070000000
  O         3.1520000000       14.0400000000       13.6400000000
  H         2.2060000000       13.8530000000       13.9190000000
  H         3.6550000000       13.2080000000       13.9180000000
  O         2.3680000000        7.0200000000        9.2230000000
  H         1.7770000000        7.3360000000        8.5050000000
  H         2.8440000000        7.8380000000        9.5780000000
  O         2.6430000000        5.3290000000       12.0160000000
  H         2.0360000000        5.8830000000       12.6450000000
  H         3.2630000000        6.0350000000       11.7280000000
  O         7.1740000000       11.0780000000        8.0270000000
  H         7.6610000000       11.2630000000        8.7900000000
  H         7.7700000000       10.3270000000        7.6340000000
  O         2.2220000000        7.9400000000        0.1650000000
  H         2.8890000000        8.5930000000        0.5310000000
  H         2.4380000000        7.1250000000        0.7700000000
  O        14.3650000000       15.8670000000        8.2520000000
  H        14.3720000000       16.3449990000        9.1270000000
  H        13.4750000000       16.0830000000        7.9790000000
  O         9.8980000000        3.5360000000       14.3150000000
  H        10.8280000000        3.7270000000       14.1530000000
  H         9.3450000000        3.8570000000       13.5680000000
  O         2.9060000000        6.2160000000        2.2600000000
  H         3.8890000000        6.0380000000        2.3330000000
  H         2.5040000000        6.0100000000        3.1470000000
  O         2.7970000000       14.4470000000        3.5170000000
  H         2.3390000000       15.1540000000        2.9840000000
  H         3.6950000000       14.5130000000        3.1290000000
  O        17.4880010000        9.4210000000        0.9690000000
  H        18.4459990000        9.1090000000        1.1010000000
  H        16.9640010000        8.7380000000        0.4220000000
  O        11.4780000000       15.2060000000        8.4670000000
  H        12.1580000000       14.7070000000        8.8740000000
  H        11.4380000000       14.8100000000        7.5590000000
  O        17.7490010000       -0.1960000000       14.3180000000
  H        17.0840000000        0.4990000000       14.2440000000
  H        18.6120000000        0.2180000000       14.0140000000
  O         3.2830000000       17.1970010000       10.9830000000
  H         3.7980000000       16.5450000000       11.5680000000
  H         3.0240000000       16.7900010000       10.1460000000
  O        16.4669990000       11.2870000000       10.4620000000
  H        16.2540000000       10.7190000000        9.6880000000
  H        17.4769990000       11.2960000000       10.4440000000
  O         9.9650000000       -0.0140000000        6.9810000000
  H        10.3680000000        0.8720000000        6.9150000000
  H        10.4760000000       17.9310000000        6.3600000000
  O        14.5880000000       17.3169990000        5.5610000000
  H        15.2430000000       16.6329990000        5.1820000000
  H        14.5290000000       17.1170010000        6.5060000000
  O        19.0410000000       16.9740010000        8.6020000000
  H        18.3910010000       16.9120010000        7.9130000000
  H        19.5420000000       17.7970010000        8.3650000000
  O        11.1010000000        6.2650000000       17.0599990000
  H        11.3330000000        7.0000000000       16.4810010000
  H        10.3190000000        6.6570000000       17.5020010000
  O         4.6850000000        5.4320000000        7.8810000000
  H         4.8050000000        6.1100000000        7.2310000000
  H         4.1090000000        5.7850000000        8.5820000000
  O         9.3880000000       17.1560000000        9.3770000000
  H         9.3780000000       -0.7500000000        8.6600000000
  H         9.7930000000       16.4000000000        8.9050000000
  O        13.6300000000        6.3680000000       11.1860000000
  H        13.4660000000        6.0030000000       12.0420000000
  H        13.5520000000        7.3310000000       11.1670000000
  O        17.6430000000        7.8770000000        9.1310000000
  H        18.3640000000        8.3180000000        9.6640000000
  H        16.8530010000        8.4280000000        9.4570000000
  O         6.1340000000        7.7000000000       16.5970000000
  H         5.3560000000        7.2300000000       16.1609990000
  H         6.0930000000        7.5360000000        0.5030000000
  O        11.7490000000        5.2950000000        5.5760000000
  H        12.5740000000        5.2850000000        6.1520000000
  H        12.1070000000        5.5140000000        4.7040000000
  O        15.8260000000        5.9790000000       14.8650000000
  H        16.2890000000        5.1790000000       15.0650000000
  H        16.3770010000        6.3660000000       14.0200000000
  O         9.2280000000        9.2240000000        6.9750000000
  H         9.3820000000        8.2160000000        6.7240000000
  H        10.0880000000        9.4740000000        7.4260000000
  O         1.4590000000        1.5830000000        2.7540000000
  H         1.5490000000        1.4550000000        3.7650000000
  H         1.8970000000        2.4530000000        2.5480000000
  O        15.6810000000        1.5000000000       14.4060000000
  H        15.0630000000        1.1950000000       13.6680000000
  H        15.1630000000        1.5080000000       15.2410000000
  O        14.2100000000       11.8870000000        1.5390000000
  H        14.8980000000       11.8190000000        0.8910000000
  H        14.6780000000       11.8470000000        2.4260000000
  O         4.8920000000        7.1400000000       12.2020000000
  H         4.9330000000        6.2670000000       12.5570000000
  H         5.6650000000        7.0660000000       11.6540000000
  O        10.4900000000       13.6370000000       16.8099990000
  H        11.4690000000       13.7460000000       17.0690000000
  H         9.9950000000       13.4610000000       17.7129990000
  O         7.1270000000       11.2640000000       16.3080010000
  H         6.2320000000       10.8970000000       16.2470000000
  H         7.3670000000       11.7340000000       15.4940000000
  O         6.1500000000        2.1630000000        4.5480000000
  H         5.4690000000        1.6540000000        3.9210000000
  H         6.7610000000        2.6180000000        3.9340000000
  O         6.7780000000        1.2730000000       10.1160000000
  H         7.6230000000        0.9410000000       10.3660000000
  H         6.3150000000        0.3970000000        9.8120000000
  O         2.8620000000       11.5690000000       11.3680000000
  H         3.7090000000       11.8210000000       11.8080000000
  H         2.1750000000       11.4250000000       12.1120000000
  O        11.1840000000       17.7540000000       15.7060000000
  H        10.3670000000       18.2920000000       15.5470000000
  H        11.0920000000       16.9909990000       15.0700000000
  O         5.3330000000        1.1120000000       14.9630000000
  H         5.9890000000        1.7400000000       15.3750000000
  H         5.8780000000       18.9419990000       14.5450000000
  O         6.9920000000       17.4880010000        3.3310000000
  H         7.8060000000       17.9610000000        3.4210000000
  H         7.2430000000       16.5919990000        3.5120000000
  O        13.2760000000        5.1610000000       13.7520000000
  H        14.2100000000        5.2700000000       14.0000000000
  H        13.1240000000        4.2920000000       13.3250000000
  O        15.7620000000        9.5950000000       12.6660000000
  H        15.5190000000       10.2490000000       13.2960000000
  H        15.5990000000        9.8310000000       11.7470000000
  O         0.2560000000       18.6030010000       16.7409990000
  H        -0.1550000000        0.7580000000       17.2759990000
  H        19.9450000000       18.4950010000       15.9540000000
  O        13.4750000000       11.4090000000       10.4790000000
  H        13.7080000000       12.3290000000       10.4250000000
  H        13.0030000000       11.3420000000       11.3260000000
  O        13.2490000000        8.7770000000       14.4010000000
  H        14.1020000000        8.7520000000       13.8670000000
  H        13.4950000000        8.2660000000       15.2310000000
  O         2.1320000000        6.0310000000        4.8190000000
  H         2.8470000000        6.5040000000        5.2350000000
  H         2.1700000000        5.1400000000        5.2430000000
  O         4.7740000000       15.7210000000       15.5600000000
  H         4.3230000000       16.5470010000       15.3700000000
  H         5.0890000000       15.8630000000       16.4970000000
  O        12.6570000000       13.8090000000        6.3960000000
  H        12.0240000000       13.5160000000        5.6940000000
  H        13.3290000000       14.3290000000        5.8860000000
  O         1.2270000000        1.1280000000        5.8130000000
  H         1.0270000000        0.6170000000        6.6860000000
  H         0.8460000000        1.9620000000        6.0780000000
  O        16.5690000000       10.1470000000        3.3210000000
  H        17.3300000000        9.7270000000        3.8390000000
  H        16.9160000000        9.8890000000        2.4050000000
  O         7.5980000000       15.0400000000       14.8790000000
  H         8.5010000000       15.0560000000       14.4870000000
  H         7.3150000000       15.9920000000       14.9740000000
  O         2.7250000000       15.7630000000        8.3580000000
  H         1.9240000000       15.8680000000        7.8360000000
  H         2.6050000000       14.8370000000        8.6740000000
  O         6.5380000000        4.5690000000        9.4870000000
  H         6.2020000000        4.7720000000       10.3820000000
  H         5.8670000000        4.8900000000        8.8080000000
  O         0.0520000000        4.4370000000       15.3550000000
  H        20.1849990000        5.0670000000       16.0680010000
  H        -0.8510000000        4.1810000000       15.1300000000
  O        10.4330000000       15.3600000000       14.4060000000
  H        10.6200000000       14.9580000000       13.5160000000
  H        10.6680000000       14.7130000000       15.1150000000
  O         9.1500000000        0.7080000000        1.0270000000
  H         8.6070000000       -0.1010000000        0.9600000000
  H         9.9000000000        0.4720000000        1.6060000000
  O         2.6920000000        3.6380000000        1.1300000000
  H         2.6290000000        3.5070000000        0.1780000000
  H         2.5450000000        4.6040000000        1.3090000000
  O        13.5650000000        0.6350000000       16.3460010000
  H        12.7090000000       18.7020000000       16.0429990000
  H        13.9350000000       18.4830000000       -0.1060000000
  O        13.5620000000        8.3960000000        6.8430000000
  H        14.3750000000        8.0360000000        6.3340000000
  H        13.2090000000        7.6640000000        7.3760000000
  O        11.6420000000       15.3930000000       11.3700000000
  H        11.6290000000       16.1350000000       10.7050000000
  H        10.7320000000       15.0020000000       11.2520000000
  O        15.6630000000        1.0000000000        8.8400000000
  H        16.1930010000        0.9510000000        8.0200000000
  H        14.8340000000        0.4970000000        8.7050000000
  O         6.5950000000        1.5980000000        7.2540000000
  H         6.3580000000        1.8420000000        6.3440000000
  H         7.3890000000        0.9520000000        7.1740000000
  O        16.6560000000       11.7160000000       -0.2260000000
  H        17.3610000000       12.3370000000       16.9070000000
  H        16.9009990000       10.8890000000        0.2530000000
  O        18.9260010000        8.1830000000       14.7660000000
  H        18.3239990000        7.9940000000       13.9520000000
  H        18.5910000000        9.1250000000       14.8980000000
  O         3.0490000000       18.1670000000       16.4640010000
  H         3.8890000000       18.4900000000       16.0790000000
  H         2.3230000000       18.8410000000       16.2420010000
  O        -0.5050000000        1.4690000000       13.6530000000
  H         0.0970000000        0.9870000000       13.1260000000
  H        19.4109990000        2.1900000000       13.0840000000
  O        14.9540000000       13.7990000000       10.2650000000
  H        15.1210000000       14.0840000000        9.3040000000
  H        15.7030000000       13.1520000000       10.3830000000
  O        -0.4630000000        8.7070000000       11.0420000000
  H        -0.4460000000        8.4910000000       11.9510000000
  H         0.3470000000        8.2980000000       10.6780000000
  O        11.1560000000        0.5830000000        3.2360000000
  H        11.8560000000       18.4529990000        2.9070000000
  H        11.2700000000        0.6390000000        4.2110000000
  O        15.7920000000        4.7600000000       11.3710000000
  H        16.4330010000        4.0510000000       11.6190000000
  H        14.8780000000        4.4680000000       11.5000000000
  O        -0.3260000000        7.0130000000        3.7300000000
  H        20.3120000000        7.5230000000        3.0090000000
  H         0.4000000000        6.4840000000        4.0880000000
  O        15.8750000000        3.4080000000       16.6259990000
  H        14.8480000000        3.6280000000       16.4340000000
  H        15.8290000000        2.5360000000       17.0410000000
  O        20.3519990000        3.5590000000        6.0150000000
  H        20.4130000000        4.1000000000        6.8560000000
  H        19.4009990000        3.6600000000        5.7020000000
  O        15.1600000000       14.6790000000        4.3130000000
  H        15.2810000000       13.6830000000        4.3370000000
  H        14.9930000000       14.8470000000        3.3860000000
  O         8.1700000000       12.6230000000        4.9230000000
  H         7.4720000000       12.2770000000        5.5200000000
  H         8.7430000000       11.8960000000        4.6200000000
  O        15.5440000000        7.6180000000        4.5660000000
  H        15.8250000000        8.5260000000        4.3160000000
  H        14.8090000000        7.2540000000        4.0570000000
  O        13.3940000000        8.1690000000        0.2960000000
  H        12.8290000000        9.0080000000        0.3780000000
  H        13.2220000000        7.6930000000        1.1310000000
  O        14.3660000000        5.3700000000        6.8820000000
  H        14.9680000000        5.2610000000        7.6760000000
  H        14.9840000000        5.2560000000        6.1640000000
  O         0.2900000000       13.8270000000       11.2780000000
  H        20.1509990000       14.0840000000       12.1050000000
  H         1.2390000000       13.8950000000       11.4370000000
  O        11.8700000000        2.4120000000        8.9640000000
  H        12.4380000000        1.8930000000        8.3860000000
  H        11.3060000000        2.8020000000        8.2880000000
  O        20.1290000000       15.7620000000        2.0400000000
  H        19.7090000000       16.6180000000        2.1100000000
  H        21.0280000000       16.0240000000        1.7940000000
  O         5.2330000000        4.5200000000       15.3280000000
  H         4.4410000000        3.9230000000       15.4880000000
  H         4.8710000000        5.3900000000       15.2260000000
  O        12.7670000000       17.1970010000        2.2690000000
  H        12.7410000000       16.3320010000        1.9350000000
  H        13.7680000000       17.4090000000        2.2850000000
  O         7.2120000000       14.9200000000       10.5940000000
  H         7.6380000000       15.6790000000       10.1190000000
  H         6.3830000000       15.1660000000       11.0250000000
  O        19.4260010000       11.3620000000       10.9550000000
  H        19.9629990000       10.5360000000       11.0750000000
  H        19.9290010000       12.1270000000       11.3080000000
  O         3.3680000000        3.5860000000        5.5910000000
  H         4.2140000000        3.3440000000        5.0320000000
  H         2.8690000000        2.8090000000        5.7950000000
  O         9.4540000000       15.2650000000        5.3980000000
  H         9.5320000000       15.3100000000        4.4150000000
  H         9.1190000000       14.3140000000        5.4170000000
  O         2.2290000000        3.0440000000       10.2740000000
  H         3.0250000000        2.7900000000        9.7530000000
  H         2.5230000000        3.7350000000       10.9580000000
  O        11.4070000000       12.4280000000        4.2470000000
  H        12.2070000000       12.1210000000        3.7820000000
  H        11.0860000000       11.6150000000        4.7090000000
  O        11.3920000000       11.6730000000       12.5220000000
  H        11.5930000000       11.8820000000       13.5270000000
  H        10.4270000000       11.8160000000       12.4070000000
  O        19.3770010000        0.4530000000        3.6850000000
  H        19.7780000000        0.5000000000        4.5780000000
  H        19.9190010000        1.0490000000        3.1220000000
  O         7.2480000000       12.3010000000        1.6110000000
  H         8.0930000000       12.6830000000        1.9350000000
  H         7.4840000000       12.0760000000        0.6450000000
  O         9.0620000000        3.8230000000        5.1870000000
  H         9.6390000000        4.5970000000        5.0400000000
  H         8.8690000000        3.5960000000        6.1530000000
  O        11.6710000000        8.5450000000       12.1830000000
  H        12.0420000000        8.4750000000       13.1460000000
  H        11.1550000000        9.3330000000       12.2270000000
  O        19.0460000000        6.5610000000       16.8659990000
  H        18.8230000000        7.0800000000       16.0639990000
  H        18.1870000000        6.0860000000       17.0680010000
  O         3.2060000000       13.9750000000       16.8239990000
  H         3.6010000000       14.4240000000       16.0599990000
  H         2.3850000000       14.4900000000       16.9870000000
  O         3.5380000000        9.3360000000        9.9520000000
  H         3.1460000000       10.1650000000       10.3480000000
  H         4.3570000000        9.1610000000       10.4590000000
  O         6.1580000000       10.4240000000        3.1840000000
  H         6.6050000000       11.0840000000        2.5880000000
  H         6.2490000000       10.7800000000        4.0770000000
  O         0.3430000000       11.2330000000        1.0980000000
  H         0.8040000000       11.6140000000        1.9530000000
  H         0.1390000000       10.3310000000        1.3750000000
  O         2.2430000000       11.1460000000       15.5920000000
  H         1.7260000000       10.6760000000       16.2850000000
  H         2.4460000000       12.0540000000       15.8700000000
  O        17.5410000000        5.8910000000        3.7010000000
  H        18.4860000000        6.2920000000        3.8140000000
  H        16.8939990000        6.4770000000        4.1400000000
  O        17.2520010000       15.1240000000       15.2400000000
  H        17.9009990000       14.4890000000       15.5870000000
  H        17.5770000000       15.3840000000       14.3150000000
  O        14.4170000000        0.5460000000       12.1990000000
  H        15.3330000000        0.7180000000       11.8260000000
  H        14.4530000000       18.1480010000       12.3090000000
  O        15.8720000000        7.9110000000       -0.3440000000
  H        15.9770000000        7.1720000000       16.0320000000
  H        14.9730000000        7.8500000000       -0.0590000000
  O         6.6810000000        2.9050000000       -0.3680000000
  H         7.7270000000        2.9980000000       -0.1710000000
  H         6.3720000000        3.8160000000       16.4890000000
  O         5.3320000000        4.4170000000       12.7050000000
  H         4.3640000000        4.3160000000       12.8180000000
  H         5.8650000000        4.2580000000       13.5430000000
  O         0.0370000000        0.9290000000        8.5360000000
  H         0.3170000000        1.1210000000        9.4720000000
  H        19.6810000000        1.6770000000        8.3450000000
  O        15.4040000000       17.8530010000        2.0030000000
  H        16.0219990000       17.4360010000        2.6760000000
  H        15.8780000000       17.7570000000        1.1680000000
  O        18.0079990000        3.9590000000       14.4920000000
  H        18.1550010000        3.7780000000       13.5290000000
  H        17.7020000000        3.0870000000       14.8490000000
  O        17.4050010000       16.3470000000        6.7090000000
  H        16.8799990000       15.5400000000        6.7570000000
  H        17.4500010000       16.5210000000        5.7190000000
  O        18.9419990000        2.3280000000       17.4220010000
  H        18.5480000000        3.1210000000        0.7800000000
  H        19.5660000000        2.6890000000       16.7250000000
  O         0.3990000000        4.6770000000        8.8080000000
  H         1.2370000000        4.3050000000        9.2440000000
  H         0.1560000000        5.5670000000        9.1410000000
  O         9.0290000000       16.1740000000        0.0910000000
  H         8.4730000000       15.4410000000       -0.2020000000
  H         9.8200000000       16.3630010000       16.5420000000
  O         8.1630000000        2.9470000000        2.8600000000
  H         8.5680000000        2.1720000000        2.4630000000
  H         8.6350000000        3.2180000000        3.7610000000
  O         7.3080000000       12.5520000000       14.0810000000
  H         7.1800000000       13.4740000000       14.3820000000
  H         7.6550000000       12.6430000000       13.1000000000
  O        12.0040000000       10.4370000000        0.5930000000
  H        11.5270000000       10.0400000000        1.3310000000
  H        12.4300000000       11.2060000000        0.9790000000
  O         4.2250000000        7.3820000000        6.0110000000
  H         4.0890000000        8.3150000000        5.9820000000
  H         4.9890000000        7.1400000000        5.4550000000
  O         8.7180000000       13.1190000000       11.7650000000
  H         8.7770000000       12.4060000000       11.0480000000
  H         8.1140000000       13.8210000000       11.4290000000
  O        12.1290000000        6.9800000000        8.8120000000
  H        11.3540000000        6.3760000000        8.6720000000
  H        12.7340000000        6.3880000000        9.3130000000
  O        16.8230000000       19.7570000000       11.1880000000
  H        17.5560000000       19.0170000000       11.2550000000
  H        16.4009990000       19.7590010000       10.1610000000
  O        18.9109990000       12.5600000000        5.7180000000
  H        18.8099990000       12.2270000000        6.5990000000
  H        19.8169990000       12.9090000000        5.7700000000
  O        15.2260000000       11.4920000000       14.5620000000
  H        14.3490000000       11.9540000000       14.8030000000
  H        15.7560000000       11.4250000000       15.4220000000
  O         3.7100000000        9.8410000000        5.4840000000
  H         4.1980000000       10.6530000000        5.7980000000
  H         3.5840000000        9.9670000000        4.5130000000
  O        18.6040000000        3.1880000000       11.8670000000
  H        19.1609990000        3.5100000000       11.1410000000
  H        18.0410000000        2.4140000000       11.4250000000
  O         4.8370000000        1.6000000000        1.5760000000
  H         4.0160000000        2.1590000000        1.7600000000
  H         5.4270000000        2.2410000000        1.0080000000
  O         4.2210000000       14.0560000000        6.2300000000
  H         4.0510000000       14.6670000000        5.5000000000
  H         4.0790000000       14.5260000000        7.0630000000
  O         4.9910000000       10.0230000000       15.6610000000
  H         4.1310000000        9.9670000000       16.1299990000
  H         5.4250000000        9.1610000000       15.9250000000
  O         0.8410000000       10.8180000000       13.3210000000
  H         1.5020000000       10.7930000000       13.9780000000
  H        20.2800010000       11.1220000000       13.8620000000
  O         1.9600000000       11.7170000000        3.1070000000
  H         2.1810000000       12.6540000000        3.4300000000
  H         1.4740000000       11.3320000000        3.7740000000
  O         4.2670000000        2.5320000000        8.7060000000
  H         5.1540000000        2.1210000000        8.6870000000
  H         4.2690000000        3.0370000000        7.8700000000
  O         4.7070000000       11.7980000000       13.5490000000
  H         5.5920000000       12.2450000000       13.8010000000
  H         4.7630000000       10.9430000000       14.0220000000
  O        18.4800000000       12.0520000000        8.3840000000
  H        18.9990010000       11.6630000000        9.0900000000
  H        18.3570000000       13.0180000000        8.6060000000
  O        10.0180000000       16.1200010000        2.6280000000
  H        10.9080000000       16.5510010000        2.5920000000
  H         9.6820000000       16.1019990000        1.7240000000
  O         5.9970000000       17.1410010000        0.6350000000
  H         6.4030000000       17.1180000000        1.5240000000
  H         5.7290000000       18.0390000000        0.4020000000
  O        13.2800000000       14.4050000000        0.5590000000
  H        13.9310000000       14.8370000000       16.9990010000
  H        13.7740000000       13.6660000000        1.0320000000
  O        18.4150010000       14.5180000000        3.6890000000
  H        18.3780000000       13.8470000000        4.3680000000
  H        19.1880000000       14.4560000000        3.0840000000
  O         4.7360000000       15.5390000000       12.3710000000
  H         3.9960000000       15.0890000000       12.8810000000
  H         5.2060000000       16.0240000000       13.0530000000
  O         8.9190000000        3.2230000000        7.5870000000
  H         8.8850000000        4.0460000000        8.1170000000
  H         8.0620000000        2.6780000000        7.7550000000
  O        20.1310010000        8.2840000000        1.3980000000
  H         0.6860000000        8.2960000000        0.9340000000
  H        19.6240010000        7.6140000000        0.8720000000
  O        16.0709990000        1.8660000000        3.0720000000
  H        15.8250000000        1.8380000000        4.0000000000
  H        15.6950000000        1.0150000000        2.7190000000
  O         9.5370000000        6.5600000000        6.6750000000
  H         9.4520000000        6.2270000000        7.5760000000
  H        10.2550000000        6.0920000000        6.2250000000
  O        11.6490000000       16.7660010000        5.6800000000
  H        12.6040000000       16.7880000000        5.3740000000
  H        11.1540000000       15.9520000000        5.4730000000
  O        14.9390000000       16.0359990000       16.2080000000
  H        14.4350000000       16.4330010000       15.4900000000
  H        15.7990000000       15.8060000000       15.7970000000
  O         9.5960000000       11.4070000000        9.9200000000
  H        10.1730000000       12.0900000000        9.5560000000
  H        10.0430000000       10.5580000000        9.7700000000
  O         0.5930000000       15.9660000000        6.0060000000
  H        20.5180000000       15.9280000000        5.0910000000
  H        -0.2080000000       16.2590010000        6.5670000000
  O        19.0930000000       13.3440000000       17.0130000000
  H        19.4990010000       12.4930000000        0.2300000000
  H        19.5170000000       14.0400000000        0.4860000000
  O        18.7320000000        8.9880000000        4.7500000000
  H        18.9950010000        8.0160000000        4.7030000000
  H        18.3220010000        9.1290000000        5.5960000000
  O        17.2970010000       16.9930000000        3.7730000000
  H        17.9109990000       17.6819990000        3.4760000000
  H        17.7190000000       16.0770000000        3.6780000000
  O        14.2820000000        4.3110000000        2.6280000000
  H        14.8910000000        4.2470000000        1.8990000000
  H        14.2030000000        3.4570000000        3.1330000000
  O        20.2600000000        4.5220000000        2.1850000000