#     Step Nr.          Time[fs]        Kin.[a.u.]          Temp[K]            Pot.[a.u.]        Cons Qty[a.u.]        UsedTime[s]
         0            0.000000         3.844830508       300.000000000     -1263.147140699     -1259.301835168         0.000000000
         1            1.000000         4.256069411       332.087674775     -1263.774333964     -1259.516877709        48.418570598
         2            2.000000         3.998333252       311.977335047     -1263.428686940     -1259.427968388        14.612727270
         3            3.000000         3.803069768       296.741541122     -1263.145662885     -1259.339231009        14.671334965
         4            4.000000         4.443023060       346.675078430     -1264.039713354     -1259.592281004        14.060262572
         5            5.000000         3.869483958       301.923630975     -1263.257348385     -1259.382305342        14.716506035
         6            6.000000         3.894730646       303.893550351     -1263.327131663     -1259.425746868        14.689410727
         7            7.000000         4.126501195       321.977875440     -1263.742617146     -1259.608314592        15.273590685
         8            8.000000         3.684842860       287.516668336     -1263.031738255     -1259.337937368        14.654103882
         9            9.000000         4.208441491       328.371418352     -1263.817305112     -1259.598744658        16.196783055
        10           10.000000         3.884391436       303.086814445     -1263.396324944     -1259.500571231        14.699804006
        11           11.000000         3.540552650       276.258158234     -1262.881845904     -1259.328782933        14.063720193
        12           12.000000         4.148622401       323.703923371     -1263.747047231     -1259.584763599        14.672558074
        13           13.000000         3.699478072       288.658607791     -1263.081818349     -1259.367470266        14.617308042
        14           14.000000         3.794842505       296.099593739     -1263.257523730     -1259.446672653        14.668843006
        15           15.000000         3.897249602       304.090096559     -1263.454459902     -1259.540043806        14.686380857
        16           16.000000         3.385513837       264.160968603     -1262.715827220     -1259.312055476        14.024931782
        17           17.000000         4.040051849       315.232505591     -1263.602143059     -1259.542783361        14.064820951
        18           18.000000         3.869177591       301.899726063     -1263.319136032     -1259.429513982        13.415635249
        19           19.000000         3.530346286       275.461787867     -1262.903603364     -1259.351749345        14.005045106
        20           20.000000         4.019366462       313.618490102     -1263.627381159     -1259.585465352        14.034061840
        21           21.000000         3.588807742       280.023350892     -1262.977120883     -1259.364703250        14.705831986
        22           22.000000         3.851538749       300.523422888     -1263.282219876     -1259.406068515        14.119718631
        23           23.000000         3.992289356       311.505748862     -1263.522328210     -1259.504371987        14.077860744
        24           24.000000         3.387468625       264.313494492     -1262.702184938     -1259.288047964        14.730224115
        25           25.000000         4.003110125       312.350059325     -1263.611540692     -1259.580820504        14.686396628
        26           26.000000         3.921823651       306.007532136     -1263.467576607     -1259.517119300        14.667078043
        27           27.000000         3.675357988       286.776593680     -1263.064338964     -1259.359356278        14.087608852
        28           28.000000         4.067837002       317.400493431     -1263.681005450     -1259.582553288        15.311695481
        29           29.000000         3.527677375       275.253541175     -1262.905339140     -1259.346055429        14.695786623
        30           30.000000         3.862208967       301.355986324     -1263.349523733     -1259.454786096        14.086002076
        31           31.000000         4.113374304       320.953625537     -1263.695326550     -1259.548427748        14.651205283
        32           32.000000         3.506349169       273.589368523     -1262.826573921     -1259.285718585        15.377746950
        33           33.000000         3.995632828       311.766629440     -1263.592805982     -1259.561741916        15.341102288
        34           34.000000         3.892392117       303.711082309     -1263.402535527     -1259.473725196        14.716605465
        35           35.000000         3.789969037       295.719332379     -1263.276549185     -1259.449192833        15.308965744
        36           36.000000         4.210733991       328.550294909     -1263.916792457     -1259.667661141        15.366513352
        37           37.000000         3.537757745       276.040080651     -1262.994916742     -1259.417739666        15.292629792
        38           38.000000         3.783206917       295.191705495     -1263.350142008     -1259.526588790        14.703091614
        39           39.000000         4.106866739       320.445860757     -1263.770495599     -1259.622295565        14.674509754
        40           40.000000         3.618807602       282.364145387     -1263.125361040     -1259.464223617        22.460162987
        41           41.000000         4.029569751       314.414620501     -1263.746167838     -1259.673306345        22.117626046
        42           42.000000         3.741039317       291.901500635     -1263.285318606     -1259.499992590        28.389830382
        43           43.000000         3.641597443       284.142364829     -1263.144145805     -1259.457333590        26.135481928
        44           44.000000         4.191673863       327.063093246     -1263.893716005     -1259.655869461        19.265236854
        45           45.000000         3.554155757       277.319565779     -1263.006869337     -1259.405556115        18.610722275
        46           46.000000         3.690689771       287.972884317     -1263.258533193     -1259.519803541        15.971088656
        47           47.000000         3.941993856       307.581349647     -1263.640849874     -1259.649916117        15.385777960
        48           48.000000         3.583150448       279.581930081     -1263.015175817     -1259.382195779        15.288611275
        49           49.000000         4.100781406       319.971041402     -1263.782695811     -1259.631209045        15.312454376
        50           50.000000         3.726652860       290.778970753     -1263.295094617     -1259.516817044        15.408851621
        51           51.000000         3.524060315       274.971313338     -1263.068136394     -1259.491619527        15.400047217
        52           52.000000         4.106821773       320.442352175     -1263.850325009     -1259.690217857        15.316171855
        53           53.000000         3.616448699       282.180087625     -1263.091362946     -1259.420766200        15.314075932
        54           54.000000         3.772568255       294.361604282     -1263.308018881     -1259.480507667        14.743373281
        55           55.000000         3.868002880       301.808067090     -1263.470434483     -1259.546684311        14.686312903
        56           56.000000         3.485840945       271.989176438     -1262.884365289     -1259.342011263        14.700030012
        57           57.000000         4.126530662       321.980174662     -1263.825100501     -1259.641312275        14.733537050
        58           58.000000         3.817782213       297.889506848     -1263.377107430     -1259.501258922        15.380559851
        59           59.000000         3.544133727       276.537578364     -1262.955525497     -1259.352581620        15.350093936
        60           60.000000         4.020360917       313.696084298     -1263.660902508     -1259.581010112        15.428464185
        61           61.000000         3.611851413       281.821375922     -1263.042200772     -1259.370078604        14.733094474
        62           62.000000         3.908014354       304.930036264     -1263.536917073     -1259.567933849        14.717474011
        63           63.000000         3.970296411       309.789708755     -1263.631243662     -1259.599241504        15.386427918
        64           64.000000         3.479897645       271.525439455     -1262.873612694     -1259.331302794        14.723605073
        65           65.000000         4.099923656       319.904113869     -1263.712591641     -1259.549583760        15.388923163
        66           66.000000         3.895967979       303.990095562     -1263.372190211     -1259.412399081        14.750131797
        67           67.000000         3.678971311       287.058529858     -1263.128755692     -1259.385252772        15.358768770
        68           68.000000         4.049348092       315.957862090     -1263.717192617     -1259.602610346        15.336452287
        69           69.000000         3.589547542       280.081075175     -1263.034705471     -1259.379210785        16.648436483
        70           70.000000         3.983633610       310.830368323     -1263.558298628     -1259.508042090        16.658078148
        71           71.000000         4.096275148       319.619432349     -1263.722688917     -1259.559049331        15.387963245
        72           72.000000         3.539865856       276.204569856     -1262.951624179     -1259.343661339        15.382133437
        73           73.000000         4.037650639       315.045146783     -1263.694768374     -1259.588329813        15.397141479
        74           74.000000         3.830186214       298.857351935     -1263.309474679     -1259.409763164        15.349906798
        75           75.000000         3.725035995       290.652811892     -1263.097937946     -1259.302670285        14.765275742
        76           76.000000         4.059231852       316.729060707     -1263.629044391     -1259.498867706        14.811583181
        77           77.000000         3.483441999       271.801994268     -1262.828544206     -1259.273447847        14.695073538
        78           78.000000         3.864956432       301.570362333     -1263.361817985     -1259.424564266        14.794792688
        79           79.000000         4.065085161       317.185776016     -1263.638142508     -1259.500067558        15.337087413
        80           80.000000         3.570007945       278.556462043     -1262.906506179     -1259.262816640        14.708846784
        81           81.000000         3.955571754       308.640790195     -1263.490890755     -1259.460989440        14.094040395
        82           82.000000         3.657769730       285.404237334     -1263.128259002     -1259.395500174        15.415328954
        83           83.000000         3.665513627       286.008469250     -1263.105679295     -1259.364571830        15.401895747
        84           84.000000         4.100824498       319.974403728     -1263.720983373     -1259.543950241        15.412567788
        85           85.000000         3.488059272       272.162265522     -1262.863146856     -1259.298254570        14.706930377
        86           86.000000         3.760144908       293.392249653     -1263.244204565     -1259.406678392        14.792414346
        87           87.000000         3.949847377       308.194135072     -1263.424253283     -1259.396461120        14.766148627
        88           88.000000         3.611263093       281.775471137     -1262.910690827     -1259.220923498        14.735647350
        89           89.000000         4.054003074       316.321075679     -1263.583016786     -1259.449970583        14.767266563
        90           90.000000         3.660214311       285.594980314     -1263.015263029     -1259.275443183        14.080168442
        91           91.000000         3.625755060       282.906233605     -1262.944311981     -1259.238447479        14.124958517
        92           92.000000         4.152080014       323.973710041     -1263.672123170     -1259.439426675        14.730921003
        93           93.000000         3.645871048       284.475820710     -1262.975752330     -1259.248721441        14.726837315
        94           94.000000         3.855074679       300.799320305     -1263.299658304     -1259.362923244        14.069720183
        95           95.000000         3.909499046       305.045882051     -1263.446567833     -1259.454892720        15.381851650
        96           96.000000         3.595437371       280.540639983     -1262.900664959     -1259.222549977        14.694459205
        97           97.000000         4.134925086       322.635165115     -1263.601821445     -1259.383731653        14.081057029
        98           98.000000         3.728545797       290.926670686     -1263.064046560     -1259.251806382        13.483068603
        99           99.000000         3.599336336       280.844863909     -1262.943869791     -1259.260361294        14.094221665
       100          100.000000         4.061028781       316.869269472     -1263.594603328     -1259.448937915        13.490166738
       101          101.000000         3.651801889       284.938585522     -1262.982871279     -1259.245944097        14.731142558
       102          102.000000         3.949177709       308.141882986     -1263.422804215     -1259.388040921        14.754334246
       103          103.000000         3.905570242       304.739329850     -1263.380881331     -1259.389237658        14.099577216
       104          104.000000         3.517611271       274.468114814     -1262.822342002     -1259.218192933        14.108005277
       105          105.000000         4.098965826       319.829377404     -1263.631147550     -1259.445209192        13.435405304
       106          106.000000         3.784221861       295.270898368     -1263.145979095     -1259.274306048        13.468918200
       107          107.000000         3.651561141       284.919800726     -1262.973302342     -1259.233845910        12.852923212
       108          108.000000         3.993207069       311.577355147     -1263.483875111     -1259.402343291        13.454144638
       109          109.000000         3.584322268       279.673363534     -1262.865734218     -1259.192650843        12.779749761
       110          110.000000         3.977006128       310.313246804     -1263.457516346     -1259.391345783        13.449072688
       111          111.000000         3.951583367       308.329588919     -1263.430149807     -1259.388962674        13.505101942
       112          112.000000         3.504783724       273.467221735     -1262.808410860     -1259.213599551        13.462805869
       113          113.000000         4.031073019       314.531915799     -1263.524184885     -1259.402699517        12.873502094
       114          114.000000         3.784099505       295.261351314     -1263.142687622     -1259.267758483        12.833400023
       115          115.000000         3.737519981       291.626897920     -1263.086840042     -1259.258095768        12.818201264
       116          116.000000         4.000885392       312.176470486     -1263.499602368     -1259.407100496        12.868814034
       117          117.000000         3.507877337       273.708606622     -1262.765115766     -1259.165229171        12.793710873
       118          118.000000         3.941833235       307.568816873     -1263.342747920     -1259.308559202        12.847241052
       119          119.000000         4.004370455       312.448398916     -1263.419143864     -1259.322037730        12.820831824
       120          120.000000         3.559682344       277.750787965     -1262.797677627     -1259.144878588        12.806754122
       121          121.000000         3.962250968       309.161948171     -1263.448492202     -1259.392781021        12.810789264
       122          122.000000         3.679561426       287.104574712     -1263.064540153     -1259.291162826        13.443686930
       123          123.000000         3.739622296       291.790934944     -1263.139182663     -1259.305422719        13.441234408
       124          124.000000         4.045766830       315.678427524     -1263.595825784     -1259.455598433        13.478502342
       125          125.000000         3.476174013       271.234896247     -1262.799524301     -1259.228559520        12.846745579
       126          126.000000         3.821232960       298.158757729     -1263.321283982     -1259.404988662        12.836080405
       127          127.000000         3.912067146       305.246262845     -1263.338977858     -1259.331570978        12.766357734
       128          128.000000         3.587605454       279.929540183     -1262.891347146     -1259.208129548        13.453488041
       129          129.000000         3.967552875       309.575639259     -1263.471323478     -1259.407917383        13.476481066
       130          130.000000         3.586232995       279.822451538     -1262.981703797     -1259.299370539        13.444496475
       131          131.000000         3.677037419       286.907634373     -1263.005727575     -1259.232390073        12.851028680
       132          132.000000         4.068445668       317.447985787     -1263.547668794     -1259.382735723        13.441826629
       133          133.000000         3.559164190       277.710358036     -1262.846226877     -1259.190368485        12.823030387
       134          134.000000         3.841467770       299.737616134     -1263.274496386     -1259.336169782        12.771625178
       135          135.000000         3.875323697       302.379287338     -1263.264526326     -1259.292178486        12.796142834
       136          136.000000         3.663200662       285.827995860     -1262.916003056     -1259.155616422        12.804866810
       137          137.000000         4.114187726       321.017094262     -1263.493297035     -1259.281776034        12.795651572
       138          138.000000         3.684104367       287.459046019     -1262.893643706     -1259.112026029        12.826530986
       139          139.000000         3.704525295       289.052426652     -1262.923941025     -1259.121751427        12.852362662
       140          140.000000         4.112704564       320.901367828     -1263.487310147     -1259.276799673        12.803270755
       141          141.000000         3.702401921       288.886746477     -1262.879507013     -1259.079123926        12.822441049
       142          142.000000         3.959954186       308.982737546     -1263.349083223     -1259.290987215        12.831706903
       143          143.000000         3.849589135       300.371300603     -1263.215890683     -1259.267981515        12.792060239
       144          144.000000         3.586781325       279.865235957     -1262.824581759     -1259.139312736        12.815110886
       145          145.000000         4.107137434       320.466982255     -1263.588307544     -1259.382540739        12.814357756
       146          146.000000         3.737624313       291.635038659     -1263.071337747     -1259.234908509        12.799385842
       147          147.000000         3.697906252       288.535963578     -1263.038422121     -1259.241556568        13.408367009
       148          148.000000         4.005801397       312.560050822     -1263.433271432     -1259.328371043        12.780692094
       149          149.000000         3.656671483       285.318544618     -1262.969777776     -1259.213852123        14.099994884
       150          150.000000         4.014646282       313.250189276     -1263.482885901     -1259.368849509        14.088352761
       151          151.000000         3.877999518       302.588073264     -1263.268561208     -1259.291009056        13.485751798
       152          152.000000         3.538927948       276.131387839     -1262.817861443     -1259.179225615        14.053402045
       153          153.000000         4.031058633       314.530793283     -1263.467314063     -1259.336428791        14.077488460
       154          154.000000         3.746991172       292.365905146     -1263.043699459     -1259.196740923        14.119478173
       155          155.000000         3.758190294       293.239737313     -1263.084766939     -1259.226484723        14.107915702
       156          156.000000         3.961989836       309.141572856     -1263.384359816     -1259.322161913        12.800565561
       157          157.000000         3.558682037       277.672737156     -1262.845850887     -1259.186838807        14.126811844
       158          158.000000         3.974592791       310.124941700     -1263.493795105     -1259.418786001        14.099514699
       159          159.000000         3.887593698       303.336676823     -1263.404150959     -1259.416036584        14.734956523
       160          160.000000         3.522129686       274.820672486     -1262.916448895     -1259.293697722        14.747108432
       161          161.000000         3.915311489       305.499408630     -1263.497404516     -1259.481414649        14.734740844
       162          162.000000         3.657669362       285.396405969     -1263.051067776     -1259.292663512        14.707798867
       163          163.000000         3.788718353       295.621745477     -1263.191001548     -1259.301519497        14.763427577
       164          164.000000         4.001041144       312.188623269     -1263.526551427     -1259.424725458        14.699496402
       165          165.000000         3.529016920       275.358061582     -1262.868965916     -1259.239129550        15.400491709
       166          166.000000         3.900395190       304.335536925     -1263.387615702     -1259.386408022        15.375364592
       167          167.000000         3.901776460       304.443313010     -1263.373842524     -1259.371258719        15.465596605
       168          168.000000         3.648360407       284.670057562     -1262.989992242     -1259.240824430        14.121779366
       169          169.000000         3.997811432       311.936619074     -1263.526781522     -1259.428186968        15.427670640
       170          170.000000         3.672892056       286.584184769     -1263.088073627     -1259.314409164        14.787620373
       171          171.000000         3.830769540       298.902866981     -1263.285262177     -1259.353752757        15.449408642
       172          172.000000         4.103722698       320.200541131     -1263.663113048     -1259.458684775        14.778913814
       173          173.000000         3.650100503       284.805831734     -1263.022844203     -1259.272038179        14.740852563
       174          174.000000         3.946131790       307.904219578     -1263.500827146     -1259.454009917        14.754167314
       175          175.000000         3.902996112       304.538478622     -1263.380602973     -1259.376930215        14.096431808
       176          176.000000         3.719804182       290.244590001     -1263.098825413     -1259.278345025        14.141116548
       177          177.000000         4.087817079       318.959475854     -1263.700057256     -1259.511575789        14.735162918
       178          178.000000         3.715392491       289.900359668     -1263.156087652     -1259.340012302        14.156435429
       179          179.000000         3.840237760       299.641642296     -1263.344054674     -1259.403129184        15.347174080
       180          180.000000         4.117124872       321.246270522     -1263.744740984     -1259.526919939        15.393509420
       181          181.000000         3.704471350       289.048217480     -1263.053359967     -1259.248146427        14.073975577
       182          182.000000         3.950333782       308.232087749     -1263.421369475     -1259.370259454        14.157689683
       183          183.000000         3.830178490       298.856749219     -1263.245840245     -1259.314838413        13.955536480
       184          184.000000         3.677854539       286.971391647     -1263.025589575     -1259.246869274        13.480171876
       185          185.000000         4.084077130       318.667659433     -1263.540655129     -1259.355687638        13.491245901
       186          186.000000         3.708727952       289.380346727     -1263.005271457     -1259.195599553        13.395406405
       187          187.000000         3.770340516       294.187780798     -1263.107631565     -1259.236310894        13.454417343
       188          188.000000         3.997171919       311.886719900     -1263.408677839     -1259.310498586        12.846623191
       189          189.000000         3.678396163       287.013652876     -1262.950647002     -1259.171199464        12.849555325
       190          190.000000         3.983842336       310.846654542     -1263.417218971     -1259.332298509        12.794850744
       191          191.000000         3.822443779       298.253234111     -1263.183552382     -1259.259986449        13.449700102
       192          192.000000         3.654727586       285.166868496     -1262.935064051     -1259.179175915        12.819840313
       193          193.000000         4.087210295       318.912130414     -1263.535028536     -1259.346640805        12.854987579
       194          194.000000         3.780470010       294.978153281     -1263.084298175     -1259.202602710        12.871868581
       195          195.000000         3.832216319       299.015754592     -1263.184831645     -1259.251346457        12.918388339
       196          196.000000         3.971407095       309.876371901     -1263.397388700     -1259.324667897        12.815469472
       197          197.000000         3.647163724       284.576684183     -1262.908371895     -1259.159836308        12.781884051
       198          198.000000         3.995806703       311.780196360     -1263.406717595     -1259.309502676        12.805959783
       199          199.000000         3.846464384       300.127486132     -1263.232387326     -1259.284458670        12.835851527
       200          200.000000         3.634594923       283.595980231     -1262.937610743     -1259.201498191        12.839023430
       201          201.000000         4.015556519       313.321212272     -1263.499981894     -1259.382879822        12.871144813
       202          202.000000         3.756626322       293.117705479     -1263.085212373     -1259.226993223        12.773401465
       203          203.000000         3.855240792       300.812281576     -1263.249849439     -1259.292977356        12.816260022
       204          204.000000         3.939613834       307.395643990     -1263.412906683     -1259.371619707        12.850504744
       205          205.000000         3.577799502       279.164412655     -1262.899041069     -1259.219519468        12.800870721
       206          206.000000         3.926197718       306.348826769     -1263.401168703     -1259.373234652        12.825765622
       207          207.000000         3.813734864       297.573704925     -1263.193264208     -1259.277773074        12.800352932
       208          208.000000         3.627677125       283.056206275     -1262.907313303     -1259.177868046        12.821471973
       209          209.000000         3.927782319       306.472468240     -1263.322715121     -1259.293183725        12.819256524
       210          210.000000         3.661220195       285.673466301     -1262.970189294     -1259.207236891        13.442348070
       211          211.000000         3.840684133       299.676471394     -1263.195527401     -1259.253153445        12.798599838
       212          212.000000         3.951602922       308.331114744     -1263.390016587     -1259.336771234        12.795886406
       213          213.000000         3.578865777       279.247610768     -1262.907047394     -1259.226576538        12.874920925
       214          214.000000         3.887380301       303.320026154     -1263.384482431     -1259.395570750        13.453782136
       215          215.000000         3.808869898       297.194107015     -1263.240984824     -1259.330662066        13.427414598
       216          216.000000         3.699317651       288.646090654     -1263.106044743     -1259.305360222        14.744123873
       217          217.000000         3.974294036       310.101630797     -1263.509699289     -1259.434147964        14.741974102
       218          218.000000         3.666930876       286.119052697     -1263.008398582     -1259.240310425        13.436484540
       219          219.000000         3.840941346       299.696540947     -1263.233016236     -1259.291041468        12.806295766
       220          220.000000         3.978181750       310.404976844     -1263.466885645     -1259.387804012        13.448202752
       221          221.000000         3.653376420       285.061441224     -1263.028181428     -1259.274023186        13.489186289
       222          222.000000         3.933252186       306.899264651     -1263.389573884     -1259.355683300        13.403536910
       223          223.000000         3.832456272       299.034477398     -1263.211716708     -1259.278763872        13.404866150
       224          224.000000         3.775125764       294.561158627     -1263.090498107     -1259.215019355        13.509688236
       225          225.000000         4.060422009       316.821924924     -1263.508432557     -1259.347814513        14.713300096
       226          226.000000         3.726422465       290.760993775     -1263.028706251     -1259.202219369        14.113117617
       227          227.000000         3.870227670       301.981660471     -1263.201974245     -1259.231825410        13.432592869