#     Step Nr.          Time[fs]        Kin.[a.u.]          Temp[K]            Pot.[a.u.]        Cons Qty[a.u.]        UsedTime[s]
         0            0.000000         3.843405441       300.000000000     -1268.206378746     -1264.362498282         0.000000000
         1            1.000000         3.878271842       302.721523978     -1268.278058368     -1264.398452181        45.044193781
         2            2.000000         3.785859868       295.508235564     -1268.190309744     -1264.402258774        12.521429108
         3            3.000000         3.769318505       294.217086614     -1268.156718291     -1264.384373502        12.623152031
         4            4.000000         3.935901835       307.219877900     -1268.398984616     -1264.459214933        12.534372158
         5            5.000000         3.782084686       295.213560788     -1268.170575658     -1264.383769604        12.574650425
         6            6.000000         3.710040099       289.590064485     -1268.097584204     -1264.382004038        11.980505403
         7            7.000000         3.768644640       294.164487531     -1268.193565925     -1264.418586786        12.005816603
         8            8.000000         3.753517021       292.983689423     -1268.147985799     -1264.387351553        11.958630670
         9            9.000000         3.875196637       302.481486517     -1268.292305437     -1264.409212163        12.602373029
        10           10.000000         3.752451387       292.900510581     -1268.140872650     -1264.379744949        12.555146311
        11           11.000000         3.653930877       285.210415540     -1268.009065636     -1264.345718169        12.586136821
        12           12.000000         3.849380871       300.466416821     -1268.277038158     -1264.417520646        12.559171374
        13           13.000000         3.836677738       299.474863854     -1268.231453341     -1264.383905141        11.984719799
        14           14.000000         3.830049787       298.957514040     -1268.229519662     -1264.387868482        11.947685185
        15           15.000000         3.804579508       296.969411571     -1268.211365873     -1264.394460057        12.568153715
        16           16.000000         3.745844673       292.384818366     -1268.124754241     -1264.365874585        12.572187917
        17           17.000000         3.967009312       309.647996222     -1268.406365122     -1264.425609267        12.547143986
        18           18.000000         3.944300569       307.875447666     -1268.385361238     -1264.426564896        12.584457766
        19           19.000000         3.792067681       295.992791184     -1268.302210087     -1264.494896682        12.555061814
        20           20.000000         3.852371323       300.699838842     -1268.351527950     -1264.483174500        13.212841800
        21           21.000000         3.836403723       299.453475463     -1268.286820107     -1264.433693402        13.236432974
        22           22.000000         3.938463161       307.419804191     -1268.423924172     -1264.467986968        12.552561902
        23           23.000000         3.919078428       305.906713829     -1268.424135169     -1264.486807022        12.552792511
        24           24.000000         3.726778194       290.896569559     -1268.210612709     -1264.464818879        11.923139065
        25           25.000000         3.860449325       301.330373610     -1268.396960855     -1264.516750530        12.578763161
        26           26.000000         3.896138283       304.116102944     -1268.444577258     -1264.527914568        12.538849663
        27           27.000000         3.809253190       297.334219456     -1268.345356868     -1264.514813016        12.570710481
        28           28.000000         3.789406180       295.785045703     -1268.385119125     -1264.573671308        13.162787115
        29           29.000000         3.658951444       285.602299796     -1268.206155515     -1264.524438947        13.190312890
        30           30.000000         3.784227315       295.380805301     -1268.363690349     -1264.556004229        13.199575210
        31           31.000000         3.858473454       301.176145452     -1268.449191856     -1264.566559821        13.178086547
        32           32.000000         3.681671355       287.375720171     -1268.231779177     -1264.525261510        13.176046066
        33           33.000000         3.737052980       291.698575918     -1268.292105205     -1264.529554534        13.205487975
        34           34.000000         3.763608852       293.771415171     -1268.281157956     -1264.491413788        12.527332576
        35           35.000000         3.799917717       296.605531897     -1268.289693968     -1264.463012930        12.567659133
        36           36.000000         3.855872839       300.973152409     -1268.348254190     -1264.464990005        12.527822952
        37           37.000000         3.678831474       287.154050981     -1268.100611216     -1264.393772939        12.549074863
        38           38.000000         3.766732876       294.015263317     -1268.213198386     -1264.417875593        12.573223781
        39           39.000000         3.912486579       305.392181870     -1268.389312539     -1264.447647854        12.576657625
        40           40.000000         3.822888668       298.398547317     -1268.286483695     -1264.433815844        12.554125512
        41           41.000000         3.835868654       299.411710181     -1268.337453930     -1264.471211838        12.540011572
        42           42.000000         3.760211600       293.506240039     -1268.230903242     -1264.439731793        12.526002859
        43           43.000000         3.809752706       297.373209577     -1268.277972219     -1264.436687914        12.513117526
        44           44.000000         3.964444004       309.447759115     -1268.486028629     -1264.489469192        12.531184197
        45           45.000000         3.788893126       295.744998802     -1268.250628283     -1264.429020677        12.541219610
        46           46.000000         3.768729316       294.171096935     -1268.244916585     -1264.442894908        12.556240065
        47           47.000000         3.870860527       302.143028056     -1268.354716899     -1264.449990853        12.549513550
        48           48.000000         3.863195701       301.544744071     -1268.324112264     -1264.426467152        12.546514564
        49           49.000000         3.918942035       305.896067536     -1268.428634326     -1264.474648800        12.583035375
        50           50.000000         3.748531016       292.594502926     -1268.240083979     -1264.455913770        12.566206886
        51           51.000000         3.698247432       288.669578699     -1268.196593820     -1264.462143114        12.532858269
        52           52.000000         3.898245835       304.280609534     -1268.458288545     -1264.523285628        12.560322260
        53           53.000000         3.838959570       299.652974031     -1268.362995096     -1264.486708794        12.544446277
        54           54.000000         3.810653922       297.443554708     -1268.343904956     -1264.495360142        12.568729175
        55           55.000000         3.796235978       296.318150845     -1268.291745961     -1264.457063134        12.582940975
        56           56.000000         3.786104142       295.527302562     -1268.274885913     -1264.449788850        12.549252339
        57           57.000000         3.971225043       309.977058350     -1268.567442148     -1264.556670949        12.561950848
        58           58.000000         3.853924440       300.821068621     -1268.423020543     -1264.528972434        12.568226377
        59           59.000000         3.713921813       289.893054688     -1268.255426657     -1264.500819788        13.164648363
        60           60.000000         3.821833291       298.316169035     -1268.417200329     -1264.554141124        12.555545570
        61           61.000000         3.829793328       298.937495929     -1268.376694119     -1264.505131148        12.538174241
        62           62.000000         3.913376675       305.461659025     -1268.486223548     -1264.530526475        12.547660583
        63           63.000000         3.842553008       299.933462687     -1268.441726067     -1264.556289413        12.533090797
        64           64.000000         3.707667895       289.404900266     -1268.256617992     -1264.505518393        12.536806600
        65           65.000000         3.902485823       304.611565128     -1268.499136260     -1264.552683690        12.562666297
        66           66.000000         3.913349361       305.459527001     -1268.498727982     -1264.540853476        12.570629425
        67           67.000000         3.818551829       298.060031953     -1268.390731715     -1264.527089379        12.541046163
        68           68.000000         3.817986342       298.015892445     -1268.427988439     -1264.564354168        12.570752454
        69           69.000000         3.745431023       292.352530580     -1268.314245475     -1264.522619558        12.545202638
        70           70.000000         3.906332118       304.911790647     -1268.529081874     -1264.576013577        12.552175592
        71           71.000000         3.938054749       307.387925277     -1268.544447243     -1264.559090084        12.530111264
        72           72.000000         3.759158509       293.424040174     -1268.307555504     -1264.500523524        13.153606765
        73           73.000000         3.841922682       299.884262076     -1268.453750745     -1264.563399019        12.559719760
        74           74.000000         3.865225031       301.703145048     -1268.499732286     -1264.585514764        12.554921842
        75           75.000000         3.896094527       304.112687507     -1268.530146268     -1264.584485279        13.153139069
        76           76.000000         3.918279940       305.844387187     -1268.614090629     -1264.645653782        13.207318007
        77           77.000000         3.746971109       292.472743232     -1268.385283380     -1264.587563978        13.186288548
        78           78.000000         3.869892841       302.067494577     -1268.529363469     -1264.608144378        13.164460706
        79           79.000000         3.980210224       310.678403673     -1268.669856473     -1264.637716923        13.203277182
        80           80.000000         3.863413646       301.561755970     -1268.481146465     -1264.565176563        12.562798817
        81           81.000000         3.877873510       302.690431861     -1268.503985113     -1264.572926741        12.544642019
        82           82.000000         3.815299525       297.806170868     -1268.405709776     -1264.536593216        12.540714967
        83           83.000000         3.884121709       303.178139905     -1268.481821755     -1264.543250071        12.547926867
        84           84.000000         3.999365310       312.173568766     -1268.641410185     -1264.586934501        12.582287733
        85           85.000000         3.817936115       298.011971905     -1268.410767240     -1264.537039067        12.578324302
        86           86.000000         3.836029633       299.424275557     -1268.440187772     -1264.547695768        12.543976026
        87           87.000000         3.903951754       304.725989498     -1268.520972124     -1264.559877398        13.179402318
        88           88.000000         3.858734791       301.196544285     -1268.443132751     -1264.526559988        13.153960150
        89           89.000000         3.892637565       303.842851688     -1268.524771444     -1264.573593650        13.188206081
        90           90.000000         3.734667252       291.512356117     -1268.319766898     -1264.525860187        13.206734645
        91           91.000000         3.747007578       292.475589828     -1268.264889059     -1264.457970015        12.578917329
        92           92.000000         3.919170217       305.913878505     -1268.457038590     -1264.477280325        12.562967483
        93           93.000000         3.812698270       297.603127855     -1268.308493750     -1264.434513539        12.541002562
        94           94.000000         3.791802874       295.972121497     -1268.275421006     -1264.421654312        12.536153429
        95           95.000000         3.774552492       294.625629522     -1268.281909557     -1264.444721493        12.544640182
        96           96.000000         3.760036541       293.492575688     -1268.264780249     -1264.441449277        12.528529314
        97           97.000000         3.906935170       304.958862392     -1268.442578005     -1264.471687155        12.532867644
        98           98.000000         3.775462412       294.696654046     -1268.273376292     -1264.433286411        12.567038243
        99           99.000000         3.708247883       289.450171721     -1268.195426322     -1264.421904708        11.962788794
       100          100.000000         3.854623735       300.875652648     -1268.385658275     -1264.465125656        12.624914500
       101          101.000000         3.834747272       299.324179857     -1268.328847929     -1264.427544321        11.924773479
       102          102.000000         3.886806337       303.387690618     -1268.356367677     -1264.402351117        12.562860431
       103          103.000000         3.806203223       297.096151949     -1268.268925889     -1264.394851898        12.535581375
       104          104.000000         3.713209563       289.837459455     -1268.157225021     -1264.375502854        12.581588188
       105          105.000000         3.913448422       305.467259323     -1268.420743502     -1264.438146324        12.558191990
       106          106.000000         3.876182357       302.558427653     -1268.364286305     -1264.418293357        12.562234606
       107          107.000000         3.798104993       296.464038306     -1268.274217075     -1264.405639925        12.550321525
       108          108.000000         3.830615908       299.001703007     -1268.352398443     -1264.450654924        12.544804613
       109          109.000000         3.778210574       294.911163959     -1268.259611101     -1264.409619694        12.560182865
       110          110.000000         3.916140159       305.677364973     -1268.445981191     -1264.457403709        12.528747405
       111          111.000000         3.876869003       302.612024305     -1268.387281144     -1264.437295342        12.569845375
       112          112.000000         3.705160265       289.209165288     -1268.159973115     -1264.381027191        12.535059664
       113          113.000000         3.819133091       298.105402838     -1268.362699548     -1264.469132788        11.923299171
       114          114.000000         3.832323080       299.134957656     -1268.363138929     -1264.455726049        12.587522245
       115          115.000000         3.852912859       300.742108879     -1268.384446049     -1264.455781830        12.539192522
       116          116.000000         3.863818874       301.593386373     -1268.415952393     -1264.475711537        12.566564226
       117          117.000000         3.715418145       290.009852105     -1268.215511705     -1264.423008057        12.553491065
       118          118.000000         3.840710758       299.789664372     -1268.412220778     -1264.493776774        12.548269487
       119          119.000000         3.882577761       303.057625834     -1268.431286545     -1264.470311184        12.597483786
       120          120.000000         3.761216982       293.584715929     -1268.270386165     -1264.430105394        12.546281741
       121          121.000000         3.815890214       297.852277524     -1268.380024242     -1264.484416742        12.613530404
       122          122.000000         3.781261581       295.149312692     -1268.317181772     -1264.455550265        12.548899201
       123          123.000000         3.868283681       301.941890331     -1268.407078535     -1264.457771998        12.604622980
       124          124.000000         3.947471895       308.122987980     -1268.539398042     -1264.510225931        12.535533799
       125          125.000000         3.774288741       294.605042225     -1268.316057259     -1264.459379118        12.583080452
       126          126.000000         3.836734828       299.479320067     -1268.418892720     -1264.499091426        12.573905046
       127          127.000000         3.893121999       303.880664530     -1268.485088970     -1264.508208598        12.553353855
       128          128.000000         3.845333841       300.150522748     -1268.463895280     -1264.534097125        12.567730564
       129          129.000000         3.917661458       305.796111115     -1268.559317052     -1264.556473511        13.184418228
       130          130.000000         3.819607080       298.142400398     -1268.400015794     -1264.494494347        12.561893703
       131          131.000000         3.877762439       302.681762137     -1268.464406156     -1264.499995189        12.559183580
       132          132.000000         4.010075992       313.009599434     -1268.639532149     -1264.542039456        11.919226571
       133          133.000000         3.873940904       302.383469266     -1268.460520369     -1264.498360776        12.560875884
       134          134.000000         3.906125702       304.895678676     -1268.565703605     -1264.570549865        12.583382343
       135          135.000000         3.921118511       306.065954036     -1268.605541132     -1264.594560338        13.236710510
       136          136.000000         3.905669505       304.860069919     -1268.526774287     -1264.530385318        13.229043258
       137          137.000000         4.019855089       313.772914452     -1268.679677759     -1264.568210534        13.181167011
       138          138.000000         3.879515741       302.818617494     -1268.488831672     -1264.516775861        13.226874268
       139          139.000000         3.866313975       301.788143433     -1268.474441355     -1264.514657863        12.581146596
       140          140.000000         3.991389411       311.551003794     -1268.640192756     -1264.554373313        12.564040552
       141          141.000000         3.906263709       304.906450939     -1268.524163566     -1264.522469902        12.582859584
       142          142.000000         3.920520465       306.019273124     -1268.611912752     -1264.594945952        13.187401559
       143          143.000000         3.861463532       301.409538271     -1268.609039812     -1264.650095411        13.855923354
       144          144.000000         3.827374305       298.748677205     -1268.509143010     -1264.583251017        13.830088369
       145          145.000000         3.984610843       311.021897444     -1268.731253201     -1264.647058750        15.120029719
       146          146.000000         3.870685796       302.129389320     -1268.439988909     -1264.468614846        13.200783845
       147          147.000000         3.792172212       296.000950451     -1268.351126884     -1264.457171231        13.883366663
       148          148.000000         3.840265782       299.754931461     -1268.428678480     -1264.485534144        13.253659306
       149          149.000000         3.790153970       295.843415035     -1268.340489435     -1264.446353773        12.618288550
       150          150.000000         3.890591146       303.683116900     -1268.473341771     -1264.477653772        12.586477310
       151          151.000000         3.818251761       298.036609908     -1268.355606666     -1264.431121966        12.590817938
       152          152.000000         3.726170246       290.849115701     -1268.230197003     -1264.396675632        12.614934302
       153          153.000000         3.894805726       304.012089151     -1268.467432114     -1264.464150631        12.588473408
       154          154.000000         3.859263920       301.237845900     -1268.441465460     -1264.472564170        13.208655227
       155          155.000000         3.826010827       298.642249832     -1268.399670502     -1264.462855473        12.590233091
       156          156.000000         3.810380247       297.422192779     -1268.354871330     -1264.432518104        12.634462715
       157          157.000000         3.707610782       289.400442286     -1268.235520470     -1264.414782340        12.575414670
       158          158.000000         3.864789314       301.669134770     -1268.455596566     -1264.476525173        12.593869844
       159          159.000000         3.869289935       302.020434311     -1268.458617924     -1264.473853386        12.608223023
       160          160.000000         3.754253466       293.041173233     -1268.307740842     -1264.436822454        12.592661460
       161          161.000000         3.851405004       300.624412083     -1268.430027257     -1264.460769394        12.631483365
       162          162.000000         3.827484319       298.757264380     -1268.378466118     -1264.431918053        12.592067540
       163          163.000000         3.885216824       303.263619995     -1268.449476778     -1264.443967926        12.625181576
       164          164.000000         3.905804552       304.870611102     -1268.490988101     -1264.463629759        12.620060623
       165          165.000000         3.747354990       292.502707300     -1268.289676785     -1264.419507175        12.595380904
       166          166.000000         3.858259534       301.159447785     -1268.424551187     -1264.442222777        12.655742833
       167          167.000000         3.907138399       304.974725585     -1268.480761629     -1264.448258431        12.627596809
       168          168.000000         3.845980118       300.200968419     -1268.393862547     -1264.421199688        12.622914867
       169          169.000000         3.878228579       302.718147070     -1268.463351681     -1264.457110204        12.615524911
       170          170.000000         3.767624069       294.084826045     -1268.352714032     -1264.455742865        12.638905940
       171          171.000000         3.822107987       298.337610651     -1268.410114837     -1264.457332010        12.649642690
       172          172.000000         3.892264192       303.813707796     -1268.527075044     -1264.502775892        13.285165975
       173          173.000000         3.746841114       292.462596369     -1268.355245002     -1264.475003413        12.636932741
       174          174.000000         3.796442557       296.334275565     -1268.416397895     -1264.485206336        12.640216050
       175          175.000000         3.799399012       296.565043939     -1268.409213034     -1264.473703231        12.678692907
       176          176.000000         3.779477500       295.010054852     -1268.400747806     -1264.483795759        12.650099252
       177          177.000000         3.860793381       301.357229157     -1268.511947404     -1264.512300497        12.722733362
       178          178.000000         3.723157963       290.613989594     -1268.307791915     -1264.444399378        12.659103958
       179          179.000000         3.758013558       293.334670164     -1268.355618349     -1264.456013061        12.663893920
       180          180.000000         3.863825419       301.593897254     -1268.475796835     -1264.468998004        12.713323855
       181          181.000000         3.762009633       293.646586909     -1268.346855198     -1264.440476756        12.709324531
       182          182.000000         3.803308265       296.870183703     -1268.447911922     -1264.498848969        12.724542643
       183          183.000000         3.774747857       294.640878831     -1268.419383512     -1264.497488412        13.321427513
       184          184.000000         3.781538074       295.170894554     -1268.397415362     -1264.467340240        13.342817304
       185          185.000000         3.922502231       306.173961444     -1268.583509005     -1264.511047645        12.706188050
       186          186.000000         3.809544216       297.356935705     -1268.371689638     -1264.410735498        12.718323993
       187          187.000000         3.796658938       296.351165357     -1268.354045337     -1264.404539459        12.717436749
       188          188.000000         3.877741199       302.680104253     -1268.456982837     -1264.424937694        12.692473623
       189          189.000000         3.848830619       300.423466452     -1268.309820516     -1264.305200814        12.688798290
       190          190.000000         3.944290309       307.874646746     -1268.446012617     -1264.344416655        12.797642595
       191          191.000000         3.860539521       301.337413869     -1268.342932340     -1264.323538149        12.699166087
       192          192.000000         3.793977338       296.141850991     -1268.261290914     -1264.306921676        12.677972876
       193          193.000000         3.937759631       307.364889600     -1268.460700741     -1264.360986800        12.670657419
       194          194.000000         3.875716835       302.522090947     -1268.366132649     -1264.326854452        12.656430897
       195          195.000000         3.864720533       301.663766050     -1268.363616328     -1264.333720380        12.090470293
       196          196.000000         3.868176651       301.933535989     -1268.376553074     -1264.341569781        12.692577263
       197          197.000000         3.787570279       295.641742958     -1268.271314151     -1264.315305637        12.671987332
       198          198.000000         3.907582261       305.009371555     -1268.413254242     -1264.335586118        12.680567179
       199          199.000000         3.860491494       301.333665145     -1268.353893007     -1264.321630103        12.023981322
       200          200.000000         3.757632908       293.304958225     -1268.185985482     -1264.254912909        12.670963514
       201          201.000000         3.835010611       299.344734985     -1268.321170335     -1264.311056941        12.764214706
       202          202.000000         3.777299967       294.840085811     -1268.278887794     -1264.324810026        12.667032836
       203          203.000000         3.814373455       297.733885725     -1268.361762030     -1264.368938729        12.647750643
       204          204.000000         3.815662280       297.834486006     -1268.380324718     -1264.384526757        12.001260565
       205          205.000000         3.686670059       287.765897848     -1268.192406917     -1264.323940660        12.022782204
       206          206.000000         3.798845808       296.521863183     -1268.346526546     -1264.364241419        12.029275458
       207          207.000000         3.805994192       297.079835809     -1268.343677085     -1264.352574851        12.025362635
       208          208.000000         3.758875901       293.401981002     -1268.276657741     -1264.331012159        11.998097910
       209          209.000000         3.827653838       298.770496320     -1268.433999959     -1264.417913835        12.059058909
       210          210.000000         3.748993616       292.630611547     -1268.347232167     -1264.408142913        12.633018902
       211          211.000000         3.810345531       297.419482993     -1268.453140194     -1264.451045361        12.646442600
       212          212.000000         3.845918280       300.196141558     -1268.473183825     -1264.433839620        12.646850120
       213          213.000000         3.726349483       290.863106133     -1268.282470829     -1264.361031997        12.693582804
       214          214.000000         3.819554994       298.138334801     -1268.425773656     -1264.409481373        12.010584265
       215          215.000000         3.835359732       299.371985891     -1268.435753845     -1264.401983941        12.010431312
       216          216.000000         3.822680226       298.382277214     -1268.413114403     -1264.390345331        12.038580698
       217          217.000000         3.887329331       303.428513337     -1268.509238540     -1264.420125398        12.678862151
       218          218.000000         3.773262381       294.524928902     -1268.354021722     -1264.377280492        12.009665542
       219          219.000000         3.825317000       298.588092665     -1268.438127200     -1264.407653571        12.679017735
       220          220.000000         3.890157074       303.649235004     -1268.531289184     -1264.434269302        12.640480457
       221          221.000000         3.780173401       295.064373927     -1268.357820396     -1264.369077629        12.691848118
       222          222.000000         3.832989801       299.186999059     -1268.448741808     -1264.405492328        12.646878664
       223          223.000000         3.811402416       297.501978998     -1268.414126503     -1264.390766559        12.663503122
       224          224.000000         3.823814650       298.470825562     -1268.419408501     -1264.381941966        11.997363473
       225          225.000000         3.915368995       305.617171134     -1268.544929181     -1264.414189146        12.658593806
       226          226.000000         3.776709682       294.794010628     -1268.364752067     -1264.370950886        12.674656778
       227          227.000000         3.784448700       295.398085728     -1268.379567643     -1264.376343125        12.686158311