#     Step Nr.          Time[fs]        Kin.[a.u.]          Temp[K]            Pot.[a.u.]        Cons Qty[a.u.]        UsedTime[s]
       501          501.000000         3.899438208       304.373681130     -1268.841529243     -1264.355766485        43.465694793
       502          502.000000         3.829045532       298.879126118     -1268.748584712     -1264.332685629        13.241423426
       503          503.000000         3.834194724       299.281050318     -1268.749955621     -1264.328386312        13.259450614
       504          504.000000         3.836021168       299.423614829     -1268.753618094     -1264.329705201        12.671283807
       505          505.000000         3.826019891       298.642957324     -1268.719203239     -1264.304779172        12.617205193
       506          506.000000         3.901762097       304.555074135     -1268.822174023     -1264.331494556        12.638235116
       507          507.000000         3.848960280       300.433587274     -1268.737705165     -1264.299306560        12.620959247
       508          508.000000         3.804522140       296.964933710     -1268.690130947     -1264.295656950        12.583880049
       509          509.000000         3.817287173       297.961318229     -1268.720603763     -1264.312861762        12.676549810
       510          510.000000         3.766885803       294.027200113     -1268.660303256     -1264.302470863        12.745523184
       511          511.000000         3.821327793       298.276711997     -1268.733981341     -1264.321229434        12.598726347
       512          512.000000         3.835722952       299.400337340     -1268.687954852     -1264.260333171        12.641155438
       513          513.000000         3.810650557       297.443292014     -1268.708144565     -1264.305125625        13.265585653
       514          514.000000         3.880357805       302.884345441     -1268.741883087     -1264.268690429        12.604630847
       515          515.000000         3.832886766       299.178956621     -1268.660768470     -1264.234576243        12.625804272
       516          516.000000         3.797896030       296.447727505     -1268.561261959     -1264.169598289        12.664523375
       517          517.000000         3.810131259       297.402757858     -1268.591349934     -1264.186999640        12.606814957
       518          518.000000         3.746793067       292.458846003     -1268.548854034     -1264.207403406        12.624712958
       519          519.000000         3.794098094       296.151276679     -1268.654922064     -1264.265746485        12.642579271
       520          520.000000         3.817519611       297.979461418     -1268.666442031     -1264.253432710        12.631380301
       521          521.000000         3.799898572       296.604037506     -1268.650694349     -1264.254900897        12.617758395
       522          522.000000         3.857737519       301.118701444     -1268.724846190     -1264.270814457        12.642052400
       523          523.000000         3.802864889       296.835575662     -1268.662229470     -1264.262671938        12.667182511
       524          524.000000         3.782227765       295.224728871     -1268.682115233     -1264.302808542        12.597311934
       525          525.000000         3.809481792       297.352063185     -1268.707455727     -1264.300520304        12.643897682
       526          526.000000         3.773260042       294.524746315     -1268.628799235     -1264.257720467        12.666274517
       527          527.000000         3.851077786       300.598870860     -1268.745865132     -1264.296613514        12.630275484
       528          528.000000         3.870301094       302.099361100     -1268.739167341     -1264.270333534        12.622163060
       529          529.000000         3.843796000       300.030485318     -1268.652142040     -1264.209451339        12.670121791
       530          530.000000         3.905221830       304.825126248     -1268.740238082     -1264.235756390        12.615778523
       531          531.000000         3.864241980       301.626412192     -1268.663940661     -1264.200063562        12.631458221
       532          532.000000         3.866245927       301.782831838     -1268.670571299     -1264.204312324        12.621873198
       533          533.000000         3.883634506       303.140110905     -1268.678455936     -1264.194425211        12.667119702
       534          534.000000         3.810518868       297.433012918     -1268.620123135     -1264.208822522        12.617475980
       535          535.000000         3.864311383       301.631829539     -1268.695097870     -1264.229624222        12.660381791
       536          536.000000         3.884808922       303.231780857     -1268.710410549     -1264.224052384        12.655705988
       537          537.000000         3.855923383       300.977097628     -1268.703703379     -1264.245837685        12.608524630
       538          538.000000         3.885770020       303.306800130     -1268.756965808     -1264.268856901        12.616604974
       539          539.000000         3.815238931       297.801441103     -1268.665633059     -1264.247655305        12.636678622
       540          540.000000         3.818897041       298.086977759     -1268.625040274     -1264.203012181        12.657577801
       541          541.000000         3.852178155       300.684760952     -1268.641855923     -1264.186157191        12.623398053
       542          542.000000         3.791967373       295.984961582     -1268.556710503     -1264.160835372        12.663784362
       543          543.000000         3.835054598       299.348168395     -1268.600352652     -1264.161012019        12.010826622
       544          544.000000         3.821550958       298.294131311     -1268.570163162     -1264.143949820        11.994094644
       545          545.000000         3.791816687       295.973199652     -1268.490172937     -1264.093324667        12.001373594
       546          546.000000         3.835126731       299.353798840     -1268.650227123     -1264.209707655        12.613468991
       547          547.000000         3.757708821       293.310883640     -1268.595022674     -1264.231566386        12.624298209
       548          548.000000         3.769067811       294.197518492     -1268.683668047     -1264.308515954        12.650714552
       549          549.000000         3.824313584       298.509770231     -1268.718988575     -1264.288264680        12.622108582
       550          550.000000         3.785633406       295.490558876     -1268.626828031     -1264.234463773        12.620650162
       551          551.000000         3.836769348       299.482014568     -1268.683537521     -1264.239725597        11.988478560
       552          552.000000         3.817444160       297.973571995     -1268.645401643     -1264.220605007        12.048972639
       553          553.000000         3.798378157       296.485360278     -1268.654960970     -1264.248927160        12.634664675
       554          554.000000         3.864475892       301.644670439     -1268.715028522     -1264.242598800        12.600577279
       555          555.000000         3.807826208       297.222835247     -1268.620369875     -1264.204290122        12.647495754
       556          556.000000         3.833030319       299.190161725     -1268.653651951     -1264.212074601        12.019935300
       557          557.000000         3.895829390       304.091992069     -1268.728298223     -1264.223625993        12.024299149
       558          558.000000         3.878603568       302.747417113     -1268.718316083     -1264.230563457        11.981721174
       559          559.000000         3.943105437       307.782160680     -1268.865432926     -1264.312860946        12.616476052
       560          560.000000         3.906676403       304.938664064     -1268.827194978     -1264.310715508        12.643019838
       561          561.000000         3.873954691       302.384545426     -1268.823516404     -1264.339411975        12.639081958
       562          562.000000         3.932089519       306.922304630     -1268.859878980     -1264.317283142        12.636930931
       563          563.000000         3.882663523       303.064320062     -1268.867552067     -1264.374009722        13.940790711
       564          564.000000         3.902540074       304.615799702     -1268.900236320     -1264.386436285        13.390991548
       565          565.000000         3.912748563       305.412631280     -1268.928719210     -1264.404315948        13.314067526
       566          566.000000         3.860487137       301.333325044     -1268.842196533     -1264.369649267        12.640193382
       567          567.000000         3.913246429       305.451492612     -1268.897370394     -1264.371651810        12.614414476
       568          568.000000         3.866206498       301.779754219     -1268.836812206     -1264.357709172        12.640907234
       569          569.000000         3.822875865       298.397547931     -1268.818421786     -1264.382224760        12.651141908
       570          570.000000         3.869440503       302.032187011     -1268.867918889     -1264.384733738        12.622355275
       571          571.000000         3.817731249       297.995980968     -1268.790494994     -1264.358592576        12.635463516
       572          572.000000         3.845715726       300.180331078     -1268.796405989     -1264.336096425        12.626616475
       573          573.000000         3.849754705       300.495596708     -1268.810979270     -1264.346205795        12.659612017
       574          574.000000         3.788344472       295.702173249     -1268.722059021     -1264.318273713        12.612268801
       575          575.000000         3.850690399       300.568633051     -1268.807110312     -1264.340564164        12.619329092
       576          576.000000         3.818234886       298.035292767     -1268.759291870     -1264.324784890        12.685180583
       577          577.000000         3.789631159       295.802606579     -1268.697725775     -1264.291413645        12.616465147
       578          578.000000         3.834423437       299.298902649     -1268.811876862     -1264.360370820        12.667040031
       579          579.000000         3.800276657       296.633549195     -1268.775165534     -1264.357407038        12.665566919
       580          580.000000         3.874008764       302.388766146     -1268.900458490     -1264.408571713        12.623336830
       581          581.000000         3.905682301       304.861068664     -1268.940840891     -1264.416872983        12.661525562
       582          582.000000         3.848221396       300.375913062     -1268.836051479     -1264.369127057        12.622271886
       583          583.000000         3.889664831       303.610812650     -1268.942419438     -1264.433630613        13.276052765
       584          584.000000         3.846672190       300.254988633     -1268.872664532     -1264.406439320        12.673184110
       585          585.000000         3.849073046       300.442389252     -1268.896640599     -1264.427584944        13.297909972
       586          586.000000         3.910709513       305.253471616     -1268.954621186     -1264.423492185        12.632031286
       587          587.000000         3.845912291       300.195674101     -1268.881374911     -1264.414594962        13.261471329
       588          588.000000         3.877914541       302.693634623     -1268.938765253     -1264.439532664        13.277519219
       589          589.000000         3.882082172       303.018942279     -1268.906932699     -1264.403072512        13.288743990
       590          590.000000         3.820781335       298.234057748     -1268.833959372     -1264.390936084        13.267733629
       591          591.000000         3.860119063       301.304594723     -1268.940919954     -1264.458097034        13.272993349
       592          592.000000         3.802118505       296.777316092     -1268.824250976     -1264.398965606        13.251101214
       593          593.000000         3.791491801       295.947840456     -1268.813590191     -1264.398478314        13.264936287
       594          594.000000         3.840139213       299.745051979     -1268.874597258     -1264.410389984        12.658290269
       595          595.000000         3.781604572       295.176085087     -1268.797359399     -1264.391241280        12.628465872
       596          596.000000         3.811889670       297.540011929     -1268.750792334     -1264.313953937        12.666052406
       597          597.000000         3.797365892       296.406347207     -1268.739978763     -1264.317234007        13.300630804
       598          598.000000         3.741204222       292.022604333     -1268.695867991     -1264.328867407        12.616067048
       599          599.000000         3.790139996       295.842324225     -1268.714374287     -1264.298036956        12.657858422
       600          600.000000         3.728030829       290.994344904     -1268.547249651     -1264.192632940        12.643597907
       601          601.000000         3.717058108       290.137860631     -1268.462193691     -1264.118184745        12.688875722
       602          602.000000         3.766432027       293.991780329     -1268.517664286     -1264.123936473        12.650525971
       603          603.000000         3.706064567       289.279751279     -1268.430258170     -1264.096569701        12.038819670
       604          604.000000         3.747920003       292.546809906     -1268.488177394     -1264.112329222        12.012907282
       605          605.000000         3.739310564       291.874793384     -1268.464307239     -1264.096781537        12.035485222
       606          606.000000         3.685177214       287.649372653     -1268.466433196     -1264.152776361        12.655572361
       607          607.000000         3.733331827       291.408118419     -1268.566934888     -1264.204886317        12.653990087
       608          608.000000         3.669966065       286.462054606     -1268.442964664     -1264.144068075        12.660089939
       609          609.000000         3.677963046       287.086265171     -1268.466000205     -1264.158925140        12.649464601
       610          610.000000         3.741517451       292.047053677     -1268.544458506     -1264.173675688        12.021573877
       611          611.000000         3.692676282       288.234718282     -1268.491819737     -1264.169746136        12.011573961
       612          612.000000         3.743317020       292.187520432     -1268.565074670     -1264.192254646        11.998745374
       613          613.000000         3.730382505       291.177906836     -1268.525505227     -1264.165534010        12.049905564
       614          614.000000         3.680368030       287.273988097     -1268.464261836     -1264.154242408        11.990903825
       615          615.000000         3.747511015       292.514885959     -1268.626845668     -1264.249648971        12.636851226
       616          616.000000         3.699283774       288.750471228     -1268.500145522     -1264.171162855        12.636848232
       617          617.000000         3.699361196       288.756514418     -1268.502154748     -1264.173108154        12.657776063
       618          618.000000         3.737874728       291.762718113     -1268.546698853     -1264.179179409        12.662511335
       619          619.000000         3.677974119       287.087129509     -1268.487621014     -1264.180065671        12.624017137
       620          620.000000         3.742590476       292.130809477     -1268.576377040     -1264.204298339        12.658492199
       621          621.000000         3.741045885       292.010245219     -1268.571020953     -1264.200602394        12.666702752
       622          622.000000         3.699003730       288.728612138     -1268.507516755     -1264.179276693        12.021917318
       623          623.000000         3.773483542       294.542191744     -1268.567328086     -1264.164771340        12.009949898
       624          624.000000         3.746106252       292.405236134     -1268.516128956     -1264.141130766        11.993816591
       625          625.000000         3.775737717       294.718143199     -1268.573342369     -1264.168912847        12.633031754
       626          626.000000         3.814129085       297.714811263     -1268.626220871     -1264.183616335        12.620221356
       627          627.000000         3.743520045       292.203367706     -1268.532275834     -1264.160505515        12.642143285
       628          628.000000         3.801076713       296.695998172     -1268.602316537     -1264.173232324        12.652021756
       629          629.000000         3.803346570       296.873173624     -1268.563153362     -1264.132055301        12.637115224
       630          630.000000         3.783870987       295.352991857     -1268.526561154     -1264.115204226        12.628369035
       631          631.000000         3.867118487       301.850940197     -1268.670415895     -1264.176090367        12.010624888
       632          632.000000         3.830360945       298.981801663     -1268.638780946     -1264.181493671        12.659859553
       633          633.000000         3.868983014       301.996477292     -1268.698325778     -1264.202699853        12.651305714
       634          634.000000         3.911850149       305.342504903     -1268.755372393     -1264.217162423        12.624604381
       635          635.000000         3.844719162       300.102543508     -1268.657593218     -1264.186787368        12.684081185
       636          636.000000         3.898960830       304.336419033     -1268.736596058     -1264.211819814        12.609050869
       637          637.000000         3.884956642       303.243311258     -1268.769598071     -1264.259091127        12.632717862
       638          638.000000         3.857352080       301.088615708     -1268.727515008     -1264.244870201        12.639273785
       639          639.000000         3.920344989       306.005576193     -1268.810111774     -1264.264729593        12.615420084
       640          640.000000         3.850146572       300.526184201     -1268.713555508     -1264.238616773        12.616265996
       641          641.000000         3.853507630       300.788534189     -1268.770059469     -1264.292001243        12.631516250
       642          642.000000         3.874821737       302.452223383     -1268.791626464     -1264.292495873        12.609798186
       643          643.000000         3.796821465       296.363851488     -1268.711389217     -1264.290496952        12.651243151
       644          644.000000         3.836211800       299.438494733     -1268.775227845     -1264.315190386        12.636071002
       645          645.000000         3.805792795       297.064115657     -1268.748525557     -1264.319157699        12.634325521
       646          646.000000         3.767746268       294.094364413     -1268.662500956     -1264.271437652        12.627859591
       647          647.000000         3.831746624       299.089961920     -1268.754727399     -1264.299937358        12.644399677
       648          648.000000         3.776716890       294.794573245     -1268.657005009     -1264.257526213        12.613948708
       649          649.000000         3.793509850       296.105360808     -1268.724214797     -1264.308236997        12.627130168
       650          650.000000         3.819384769       298.125047722     -1268.754493214     -1264.312948402        12.606469364
       651          651.000000         3.751923984       292.859343726     -1268.674005476     -1264.300237409        12.594304118
       652          652.000000         3.803049257       296.849966690     -1268.736057168     -1264.311497135        12.579829652
       653          653.000000         3.769962791       294.267376796     -1268.695160769     -1264.304034378        12.608602345
       654          654.000000         3.741933574       292.079534526     -1268.644630535     -1264.281895197        12.641493474
       655          655.000000         3.815628378       297.831839720     -1268.760661450     -1264.324616341        12.604952747
       656          656.000000         3.764013330       293.802987000     -1268.684544771     -1264.300513059        12.618855746
       657          657.000000         3.786399209       295.550334231     -1268.717741689     -1264.311738582        12.609363160
       658          658.000000         3.809815462       297.378108056     -1268.747224632     -1264.318237599        12.624103810
       659          659.000000         3.760321857       293.514846258     -1268.634536731     -1264.255486770        13.222388074
       660          660.000000         3.837531124       299.541475553     -1268.743906240     -1264.288109922        13.278790561
       661          661.000000         3.826639844       298.691348279     -1268.740659800     -1264.296229726        13.248916706
       662          662.000000         3.811572394       297.515246773     -1268.709656802     -1264.280775759        13.264790436
       663          663.000000         3.873507780       302.349661450     -1268.633222980     -1264.142900509        12.585051027
       664          664.000000         3.814318295       297.729580191     -1268.547498232     -1264.116861436        13.233724963
       665          665.000000         3.843625861       300.017205016     -1268.641026231     -1264.181584896        12.610872750
       666          666.000000         3.861602084       301.420353114     -1268.605206346     -1264.128300473        12.592601431
       667          667.000000         3.798696302       296.510193327     -1268.719976657     -1264.306489019        13.890742238
       668          668.000000         3.860736311       301.352774481     -1268.763742412     -1264.288738502        13.881093443
       669          669.000000         3.840169475       299.747414106     -1268.808809486     -1264.354903245        14.529854373
       670          670.000000         3.830415487       298.986058992     -1268.730587404     -1264.286970031        13.232086634
       671          671.000000         3.882353246       303.040101162     -1268.808334906     -1264.313324587        13.251172156
       672          672.000000         3.800595157       296.658409973     -1268.542356059     -1264.129648061        12.608610308
       673          673.000000         3.819839867       298.160570769     -1268.569801478     -1264.138400652        12.646787101
       674          674.000000         3.837110127       299.508614343     -1268.651252309     -1264.203146779        12.613409658
       675          675.000000         3.764761522       293.861387733     -1268.552145419     -1264.176959805        11.961210113
       676          676.000000         3.806881570       297.149100803     -1268.621215386     -1264.204498097        12.596932821
       677          677.000000         3.768919694       294.185957054     -1268.542641463     -1264.164490727        11.965420282
       678          678.000000         3.763703266       293.778784725     -1268.596107383     -1264.223795199        12.627013642
       679          679.000000         3.840374529       299.763419796     -1268.745738330     -1264.297404148        12.634653329
       680          680.000000         3.779845588       295.038786263     -1268.660964718     -1264.273821759        12.582808772
       681          681.000000         3.796571638       296.344351098     -1268.608471918     -1264.205279932        12.655103910
       682          682.000000         3.798111985       296.464584022     -1268.672281167     -1264.268245281        12.608694929
       683          683.000000         3.743467214       292.199243962     -1268.627551690     -1264.278870744        12.606699680
       684          684.000000         3.806671074       297.132670398     -1268.727237296     -1264.316088986        12.611642460
       685          685.000000         3.777300511       294.840128297     -1268.671345701     -1264.290326260        12.621311106
       686          686.000000         3.791823749       295.973750881     -1268.681531558     -1264.286766972        12.599543649
       687          687.000000         3.875122005       302.475661004     -1268.806086291     -1264.328829909        12.644860770
       688          688.000000         3.829858446       298.942578781     -1268.733920426     -1264.302744826        12.595526524
       689          689.000000         3.865062508       301.690459204     -1268.775527426     -1264.309974713        12.653716938
       690          690.000000         3.876271309       302.565370851     -1268.750151878     -1264.274228809        12.595257405
       691          691.000000         3.836519651       299.462524273     -1268.748591039     -1264.313259982        12.634956969
       692          692.000000         3.898680543       304.314541003     -1268.833205526     -1264.336565702        12.612583733
       693          693.000000         3.841731337       299.869326463     -1268.762857014     -1264.324021531        12.606145357
       694          694.000000         3.821320651       298.276154483     -1268.728207147     -1264.310638941        12.653019081
       695          695.000000         3.883495147       303.129233113     -1268.851135130     -1264.372266892        12.642612212
       696          696.000000         3.836107831       299.430379343     -1268.806261082     -1264.375661948        13.235369435
       697          697.000000         3.863941889       301.602988417     -1268.824830493     -1264.367287520        13.263916430
       698          698.000000         3.839039843       299.659239843     -1268.809838233     -1264.378096263        13.246387966
       699          699.000000         3.780307169       295.074815311     -1268.741598501     -1264.369491306        13.251111015
       700          700.000000         3.856483812       301.020842360     -1268.847697249     -1264.400338327        12.649972569
       701          701.000000         3.832804745       299.172554367     -1268.806324955     -1264.383587983        12.693824103
       702          702.000000         3.828557771       298.841053549     -1268.783463972     -1264.365926957        12.624328261
       703          703.000000         3.864376131       301.636883446     -1268.852215613     -1264.399831253        12.586300548
       704          704.000000         3.803049055       296.849950852     -1268.768754177     -1264.378675103        12.614738876
       705          705.000000         3.846070505       300.208023640     -1268.829422503     -1264.397315700        12.614070247
       706          706.000000         3.839493501       299.694650461     -1268.883917732     -1264.459399677        13.896059144
       707          707.000000         3.785640210       295.491089979     -1268.806788977     -1264.437142569        13.894217239
       708          708.000000         3.859800729       301.279746887     -1268.906821671     -1264.464057089        13.242195691
       709          709.000000         3.856813201       301.046553110     -1268.816552412     -1264.377839201        12.706131924
       710          710.000000         3.887013612       303.403869634     -1268.809388794     -1264.341552571        12.637409245
       711          711.000000         3.929977893       306.757480037     -1268.801763345     -1264.292054730        12.623951168
       712          712.000000         3.852898015       300.740950217     -1268.733196032     -1264.301653335        13.228471751
       713          713.000000         3.883286249       303.112927426     -1268.784037107     -1264.323194440        13.253547993
       714          714.000000         3.885118576       303.255951125     -1268.796846828     -1264.335270727        12.681005277
       715          715.000000         3.846706897       300.257697688     -1268.736836184     -1264.314771489        12.604770708
       716          716.000000         3.908632223       305.091327181     -1268.890504731     -1264.407628097        13.266401097
       717          717.000000         3.897309080       304.207490399     -1268.933818576     -1264.463387936        13.911199929
       718          718.000000         3.936058290       307.232090165     -1268.956750395     -1264.448698681        13.927851661
       719          719.000000         3.983170906       310.909502037     -1269.019789332     -1264.465759857        13.881913134
       720          720.000000         3.893389807       303.901568516     -1268.904069317     -1264.440938000        13.955645736
       721          721.000000         3.898609159       304.308969106     -1268.904450577     -1264.437205565        13.875655591
       722          722.000000         3.899703916       304.394421245     -1268.928127104     -1264.460895918        14.558304454
       723          723.000000         3.883376159       303.119945469     -1268.878602340     -1264.428807435        13.893580217
       724          724.000000         3.951290026       308.421015136     -1268.917348095     -1264.400758026        15.186226152
       725          725.000000         3.918997795       305.900419969     -1268.816259969     -1264.333079508        13.922704768
       726          726.000000         3.938844936       307.449603936     -1268.818335680     -1264.316419850        13.277982220
       727          727.000000         3.983810102       310.959394968     -1268.886427749     -1264.340660310        13.297397656
       728          728.000000         3.915173975       305.601948726     -1268.783101355     -1264.307067097        13.260990399