#     Step Nr.          Time[fs]        Kin.[a.u.]          Temp[K]            Pot.[a.u.]        Cons Qty[a.u.]        UsedTime[s]
         0            0.000000         3.844830508       300.000000000     -1262.606803181     -1258.761497650         0.000000000
         1            1.000000         3.893874868       303.826776692     -1262.674526728     -1258.779315420        45.124896023
         2            2.000000         3.820114560       298.071492483     -1262.567736860     -1258.745420391        12.780184705
         3            3.000000         3.833611521       299.124617813     -1262.574819736     -1258.738150288        12.839428097
         4            4.000000         3.958056089       308.834634983     -1262.741395796     -1258.779409702        12.835551247
         5            5.000000         3.853929630       300.709975778     -1262.625453479     -1258.766702322        12.867638979
         6            6.000000         3.890282232       303.546454696     -1262.647017917     -1258.751024903        12.868426997
         7            7.000000         3.951463887       308.320266301     -1262.723031472     -1258.764946379        12.923528600
         8            8.000000         3.916591415       305.599277264     -1262.657115779     -1258.732970330        12.851030510
         9            9.000000         3.986022050       311.016730791     -1262.770852147     -1258.776321615        12.857263424
        10           10.000000         3.864282470       301.517775240     -1262.665268517     -1258.791505593        12.893341787
        11           11.000000         3.842698590       299.833653107     -1262.638432856     -1258.785293132        12.844868336
        12           12.000000         3.995155268       311.729366959     -1262.817020394     -1258.810442963        12.828721136
        13           13.000000         3.939493121       307.386225160     -1262.723493189     -1258.771559297        12.903744340
        14           14.000000         3.955365124       308.624667518     -1262.763855365     -1258.795014747        12.863404561
        15           15.000000         3.919351743       305.814656959     -1262.729129781     -1258.795249332        12.216856692
        16           16.000000         3.853356143       300.665228392     -1262.628750318     -1258.759811787        12.841853600
        17           17.000000         3.973991366       310.078014418     -1262.800614760     -1258.809973611        12.872130703
        18           18.000000         3.860386070       301.213751425     -1262.643434876     -1258.765310735        12.182873517
        19           19.000000         3.778788519       294.846951876     -1262.549428273     -1258.751836925        12.869550645
        20           20.000000         3.876219190       302.449159822     -1262.683016895     -1258.786937060        12.784528971
        21           21.000000         3.860689531       301.237429521     -1262.634451119     -1258.752828813        12.837194081
        22           22.000000         3.951539207       308.326143296     -1262.770300395     -1258.796740439        12.887650207
        23           23.000000         3.899396999       304.257651235     -1262.735114666     -1258.812586109        12.809415188
        24           24.000000         3.774021919       294.475029104     -1262.537148176     -1258.738900604        12.829313044
        25           25.000000         3.907808028       304.913937234     -1262.704766676     -1258.771646153        12.790095504
        26           26.000000         3.887339314       303.316828021     -1262.666488213     -1258.752725519        12.794827741
        27           27.000000         3.859929571       301.178132277     -1262.631775595     -1258.744311110        12.835802678
        28           28.000000         3.900058601       304.309273912     -1262.699025349     -1258.770314718        12.826420717
        29           29.000000         3.834352003       299.182395306     -1262.580929420     -1258.716804605        12.786431178
        30           30.000000         3.973719112       310.056771338     -1262.762655639     -1258.758030305        12.188392803
        31           31.000000         3.981692733       310.678927778     -1262.771519504     -1258.757743826        12.829997636
        32           32.000000         3.837149869       299.400703913     -1262.583518967     -1258.713107141        12.154251877
        33           33.000000         3.899169409       304.239893065     -1262.675637690     -1258.742037546        12.176672228
        34           34.000000         3.882418773       302.932893724     -1262.626321167     -1258.708288670        12.189278029
        35           35.000000         3.939273727       307.369106564     -1262.662445618     -1258.686361287        12.202488504
        36           36.000000         3.985755394       310.995924465     -1262.740480845     -1258.716684850        12.769400451
        37           37.000000         3.831214335       298.937572948     -1262.565772466     -1258.695282887        12.174452513
        38           38.000000         3.914005624       305.397516106     -1262.683516877     -1258.729011571        12.256831437
        39           39.000000         3.945146443       307.827336009     -1262.732862511     -1258.745963454        12.171515707
        40           40.000000         3.842046009       299.782734291     -1262.555026788     -1258.669972317        12.780617654
        41           41.000000         3.877446077       302.544889944     -1262.657499804     -1258.735800025        12.793081731
        42           42.000000         3.789852096       295.710207824     -1262.562618675     -1258.727275365        12.818825655
        43           43.000000         3.858484940       301.065412251     -1262.642270591     -1258.737069958        12.837616283
        44           44.000000         3.970411973       309.798725639     -1262.811434187     -1258.793052287        12.742544334
        45           45.000000         3.820047547       298.066263647     -1262.587419829     -1258.718138804        12.795013074
        46           46.000000         3.847498921       300.208207863     -1262.661349295     -1258.763377131        12.821509536
        47           47.000000         3.851897944       300.551449693     -1262.669508992     -1258.765896455        12.756761715
        48           48.000000         3.803561894       296.779940138     -1262.661864228     -1258.805357017        12.845376071
        49           49.000000         3.871613880       302.089822071     -1262.773793008     -1258.848009063        12.796297573
        50           50.000000         3.747778999       292.427376770     -1262.607991466     -1258.804829841        12.821841601
        51           51.000000         3.791401290       295.831086622     -1262.603929945     -1258.755965188        12.793306898
        52           52.000000         3.939653072       307.398705605     -1262.793788357     -1258.796373147        12.788227569
        53           53.000000         3.861403480       301.293136741     -1262.675715379     -1258.755331072        12.191190351
        54           54.000000         3.890064094       303.529434059     -1262.735981310     -1258.785723841        12.829125740
        55           55.000000         3.840028102       299.625283384     -1262.686272702     -1258.784839489        12.148729894
        56           56.000000         3.809768762       297.264242505     -1262.634511355     -1258.762143466        12.781270005
        57           57.000000         3.944698124       307.792355091     -1262.795149039     -1258.786649192        12.868659809
        58           58.000000         3.829855570       298.831552820     -1262.641787497     -1258.746915645        12.815153249
        59           59.000000         3.807531570       297.089681484     -1262.624633365     -1258.750898119        12.810559943
        60           60.000000         3.901753511       304.441522387     -1262.740540260     -1258.771394301        12.841288045
        61           61.000000         3.862151069       301.351468718     -1262.637918190     -1258.707174749        12.232973523
        62           62.000000         3.941484025       307.541569087     -1262.756559622     -1258.745276180        12.180170577
        63           63.000000         3.845597474       300.059843924     -1262.691973875     -1258.775363123        12.823404618
        64           64.000000         3.747823356       292.430837816     -1262.565311453     -1258.745296736        12.808209702
        65           65.000000         3.896086725       303.999360988     -1262.801797932     -1258.832353065        12.864136666
        66           66.000000         3.831714842       298.976625900     -1262.707290878     -1258.801039317        12.828824300
        67           67.000000         3.804415332       296.846531209     -1262.665203469     -1258.785094576        12.849134859
        68           68.000000         3.812734400       297.495641878     -1262.635992376     -1258.746423723        12.807388786
        69           69.000000         3.718981106       290.180367966     -1262.486206032     -1258.689277619        12.812331747
        70           70.000000         3.851339410       300.507869081     -1262.690461939     -1258.760081985        12.877120405
        71           71.000000         3.804357929       296.842052240     -1262.639761395     -1258.755266684        12.161908552
        72           72.000000         3.677040506       286.907875270     -1262.489899641     -1258.731666964        12.810535915
        73           73.000000         3.776069010       294.634757089     -1262.642147537     -1258.783868296        12.842265144
        74           74.000000         3.738685077       291.717806743     -1262.534387734     -1258.712488652        12.787229721
        75           75.000000         3.790914957       295.793139582     -1262.599882853     -1258.724772815        12.847776931
        76           76.000000         3.812447455       297.473252438     -1262.680303149     -1258.782687343        12.839110252
        77           77.000000         3.681329379       287.242522496     -1262.498098421     -1258.730657278        12.854696825
        78           78.000000         3.808896546       297.196186221     -1262.672911610     -1258.776991929        12.849063713
        79           79.000000         3.821301250       298.164086187     -1262.678087378     -1258.768850311        12.855446063
        80           80.000000         3.751658728       292.730099835     -1262.582876159     -1258.742388159        12.850776803
        81           81.000000         3.819208748       298.000814836     -1262.751205743     -1258.842295273        12.835143697
        82           82.000000         3.753013737       292.835826899     -1262.659972805     -1258.816398648        12.883710254
        83           83.000000         3.848618594       300.295572421     -1262.750985172     -1258.810963960        12.849072862
        84           84.000000         3.910331311       305.110821056     -1262.820738134     -1258.818150285        12.895379994
        85           85.000000         3.762907418       293.607799630     -1262.620525353     -1258.764514665        12.200805523
        86           86.000000         3.844076246       299.941147276     -1262.756289637     -1258.818286913        12.812197074
        87           87.000000         3.849398499       300.356425882     -1262.751550011     -1258.807400076        12.898438882
        88           88.000000         3.825099532       298.460454173     -1262.707668959     -1258.787000468        12.829502955
        89           89.000000         3.898058651       304.153224100     -1262.830511613     -1258.836068437        12.177520413
        90           90.000000         3.764270700       293.714172172     -1262.517836279     -1258.656371991        12.831836063
        91           91.000000         3.838943894       299.540686077     -1262.626433809     -1258.689509864        13.507141139
        92           92.000000         3.954983818       308.594915408     -1262.909186821     -1258.855422444        12.850526601
        93           93.000000         3.857944603       301.023251490     -1262.717217821     -1258.759678934        12.854432087
        94           94.000000         3.921035077       305.946002185     -1262.818969897     -1258.797529339        13.516859125
        95           95.000000         3.871941854       302.115412782     -1262.749894894     -1258.776728104        13.560790010
        96           96.000000         3.871046887       302.045581370     -1262.761622752     -1258.788535871        12.905220438
        97           97.000000         4.002608132       312.310890418     -1262.931934251     -1258.826454463        12.893767077
        98           98.000000         3.867183524       301.744135309     -1262.744024555     -1258.773118853        13.549594231
        99           99.000000         3.881846052       302.888206123     -1262.730346748     -1258.743938830        12.903264869
       100          100.000000         3.957331439       308.778092834     -1262.766998161     -1258.704252525        12.926947560
       101          101.000000         3.908149153       304.940554182     -1262.665631021     -1258.651199072        12.221382186
       102          102.000000         4.007503007       312.692822126     -1262.808158363     -1258.693488048        12.909909874
       103          103.000000         3.911953865       305.237423858     -1262.684987581     -1258.664959828        12.893455315
       104          104.000000         3.853505235       300.676861578     -1262.589906659     -1258.627430832        12.881815933
       105          105.000000         3.972928365       309.995071775     -1262.834494487     -1258.751692383        13.560632620
       106          106.000000         3.870460177       301.999802216     -1262.750258916     -1258.769006531        13.562334083
       107          107.000000         3.877562139       302.553945954     -1262.774044243     -1258.784781740        13.548132494
       108          108.000000         3.886385121       303.242375352     -1262.807455644     -1258.808460660        12.862298153
       109          109.000000         3.817503026       297.867722761     -1262.696626480     -1258.765611926        12.890188400
       110          110.000000         3.954606299       308.565458797     -1262.885625352     -1258.816605486        12.910783254
       111          111.000000         3.881740534       302.879972949     -1262.788436038     -1258.791362864        12.879097026
       112          112.000000         3.798847980       296.412128289     -1262.686090827     -1258.771009644        12.904946111
       113          113.000000         3.888253759       303.388179350     -1262.803791731     -1258.798415789        12.927509092
       114          114.000000         3.819540211       298.026677888     -1262.676337348     -1258.738786252        12.879961513
       115          115.000000         3.894453808       303.871949604     -1262.776633509     -1258.763288372        12.905486286
       116          116.000000         3.910651930       305.135837986     -1262.805563732     -1258.775128626        12.904726848
       117          117.000000         3.802247494       296.677381679     -1262.654793451     -1258.731878980        12.956326194
       118          118.000000         3.926008943       306.334097239     -1262.813068359     -1258.765517284        12.897028081
       119          119.000000         3.875604133       302.401168880     -1262.677172019     -1258.679137992        13.569955245
       120          120.000000         3.820552545       298.105667090     -1262.603881477     -1258.660024968        13.567019716
       121          121.000000         3.894581517       303.881914313     -1262.718055545     -1258.699303283        13.596890431
       122          122.000000         3.798157704       296.358268274     -1262.606609232     -1258.683418578        13.618649818
       123          123.000000         3.888891081       303.437907584     -1262.728518824     -1258.713745708        13.627065804
       124          124.000000         3.923252733       306.119038880     -1262.789263599     -1258.739266289        13.580634031
       125          125.000000         3.803380076       296.765753513     -1262.627515596     -1258.696533871        13.557452425
       126          126.000000         3.887999260       303.368321562     -1262.744418921     -1258.727975986        13.555801291
       127          127.000000         3.834429830       299.188467884     -1262.667947412     -1258.704231203        12.975477517
       128          128.000000         3.811376690       297.389704073     -1262.618335162     -1258.676846951        13.600947261
       129          129.000000         3.875979349       302.430445799     -1262.719745581     -1258.712837495        12.929937124
       130          130.000000         3.765347427       293.798185846     -1262.586419908     -1258.689337346        13.582554445
       131          131.000000         3.857993191       301.027042646     -1262.712691361     -1258.722177088        12.966235440
       132          132.000000         3.907377487       304.880343528     -1262.774355021     -1258.733662064        12.973926097
       133          133.000000         3.811947610       297.434251123     -1262.618795225     -1258.672741347        12.955937453
       134          134.000000         3.889749933       303.504921031     -1262.741645720     -1258.717010613        12.989936166
       135          135.000000         3.810472677       297.319166760     -1262.584820988     -1258.638687080        13.000437159
       136          136.000000         3.795440829       296.146279072     -1262.634243200     -1258.702387494        13.613630623
       137          137.000000         3.895047515       303.918274640     -1262.761682866     -1258.729473161        13.615156926
       138          138.000000         3.790375308       295.751032481     -1262.598289856     -1258.670008187        12.913212739
       139          139.000000         3.863316043       301.442367945     -1262.710600320     -1258.708650862        12.307736561
       140          140.000000         3.898314140       304.173159127     -1262.789900033     -1258.752219984        12.938633896
       141          141.000000         3.802563524       296.702040468     -1262.639804004     -1258.697147944        12.969437931
       142          142.000000         3.874986050       302.352941801     -1262.799460949     -1258.783669770        12.910253566
       143          143.000000         3.778640966       294.835438781     -1262.628973630     -1258.708822783        12.914622925
       144          144.000000         3.762171916       293.550410673     -1262.555987420     -1258.651629600        12.961896528
       145          145.000000         3.870139135       301.974752347     -1262.737388499     -1258.724399808        12.902285386
       146          146.000000         3.767729323       293.984037629     -1262.589516527     -1258.678280723        12.928266264
       147          147.000000         3.819734585       298.041844220     -1262.673354690     -1258.709479465        12.960119732
       148          148.000000         3.825781745       298.513685040     -1262.686296249     -1258.715747820        12.251067337
       149          149.000000         3.750731913       292.657783364     -1262.580927961     -1258.684821380        12.282096025
       150          150.000000         3.855555549       300.836841093     -1262.763791297     -1258.762271538        12.263305835
       151          151.000000         3.771329885       294.264978144     -1262.657481852     -1258.739605545        12.949731670
       152          152.000000         3.771995674       294.316927578     -1262.697314305     -1258.778215012        12.254340608
       153          153.000000         3.892903447       303.750979787     -1262.886518765     -1258.845963245        12.919144146
       154          154.000000         3.824259541       298.394912263     -1262.776192454     -1258.803729843        12.967384540
       155          155.000000         3.900841136       304.370332675     -1262.882883134     -1258.833293981        12.972480226
       156          156.000000         3.890783807       303.585591012     -1262.856249286     -1258.816164827        12.235596117
       157          157.000000         3.806525070       297.011147454     -1262.697692272     -1258.741319397        12.934209898
       158          158.000000         3.924411482       306.209452398     -1262.865756170     -1258.790956126        12.940098688
       159          159.000000         3.859313386       301.130053272     -1262.772363577     -1258.762111881        12.331848279
       160          160.000000         3.842529703       299.820475442     -1262.701580019     -1258.707570089        12.286308158
       161          161.000000         3.919624090       305.835907359     -1262.819378035     -1258.747731842        13.056212924
       162          162.000000         3.837952004       299.463292028     -1262.696356693     -1258.705836162        12.955540244
       163          163.000000         3.926280450       306.355282090     -1262.789087413     -1258.709694882        12.407725409
       164          164.000000         3.905082950       304.701308010     -1262.769850248     -1258.711099512        12.932139445
       165          165.000000         3.766699638       293.903694574     -1262.593452575     -1258.672537936        12.946016502
       166          166.000000         3.824573727       298.419427239     -1262.743414897     -1258.764101523        12.988737926
       167          167.000000         3.745778277       292.271266771     -1262.634414800     -1258.733386949        13.014454268
       168          168.000000         3.755884220       293.059801644     -1262.645590989     -1258.733974861        12.922813997
       169          169.000000         3.836165786       299.323919041     -1262.805690263     -1258.813325850        12.952259768
       170          170.000000         3.731353822       291.145771986     -1262.652946573     -1258.764940448        13.019751918
       171          171.000000         3.813710283       297.571786971     -1262.770421156     -1258.799629200        12.957848556
       172          172.000000         3.818607326       297.953887748     -1262.777762164     -1258.801651895        12.974177044
       173          173.000000         3.731069666       291.123600208     -1262.657551129     -1258.768574011        12.953388873
       174          174.000000         3.811315124       297.384900218     -1262.798771486     -1258.829167726        12.958404746
       175          175.000000         3.737559370       291.629971330     -1262.691779661     -1258.795564822        12.977251731
       176          176.000000         3.769434122       294.117057777     -1262.747708136     -1258.819276360        12.981092148
       177          177.000000         3.870357606       301.991798965     -1262.879999150     -1258.850312927        13.008151576
       178          178.000000         3.789997945       295.721587991     -1262.750506443     -1258.800851314        12.958448444
       179          179.000000         3.867903675       301.800326425     -1262.862597707     -1258.834719229        12.254990350
       180          180.000000         3.860417711       301.216220267     -1262.852218119     -1258.831506337        13.000025012
       181          181.000000         3.792002288       295.877980582     -1262.754551854     -1258.801941502        12.284196541
       182          182.000000         3.877359157       302.538107869     -1262.893182236     -1258.854910733        12.282404810
       183          183.000000         3.793342361       295.982542195     -1262.713244215     -1258.758686480        12.940315433
       184          184.000000         3.809152395       297.216149346     -1262.784442369     -1258.813785503        12.998971809
       185          185.000000         3.892460990       303.716456287     -1262.901206282     -1258.846956827        12.965660486
       186          186.000000         3.804133512       296.824541729     -1262.770714033     -1258.804506375        13.015256692
       187          187.000000         3.865956941       301.648428951     -1262.867613871     -1258.839305816        12.264881726
       188          188.000000         3.833246442       299.096131857     -1262.832002787     -1258.836128625        13.023305900
       189          189.000000         3.764904497       293.763625416     -1262.734398861     -1258.806600027        12.981716082
       190          190.000000         3.872366512       302.148547558     -1262.873924500     -1258.838410318        13.002567302
       191          191.000000         3.802050543       296.662014217     -1262.785517988     -1258.820067117        12.996482827
       192          192.000000         3.821714535       298.196333505     -1262.823722932     -1258.838366276        13.000960734
       193          193.000000         3.898799431       304.211024847     -1262.884611264     -1258.821930902        12.971190546
       194          194.000000         3.807520976       297.088854888     -1262.766610678     -1258.794966647        12.976570372
       195          195.000000         3.874058524       302.280569886     -1262.877816383     -1258.839399807        13.005664565
       196          196.000000         3.841235169       299.719467030     -1262.835126215     -1258.829296378        12.386196710
       197          197.000000         3.776182932       294.643646069     -1262.752233804     -1258.811226830        12.341247279
       198          198.000000         3.886593748       303.258653923     -1262.904710472     -1258.853073945        12.960663274
       199          199.000000         3.833311655       299.101220178     -1262.804323802     -1258.805747313        13.025931284
       200          200.000000         3.875818163       302.417868979     -1262.857802294     -1258.816500064        12.332845677
       201          201.000000         3.944238792       307.756514859     -1262.922905225     -1258.812955632        12.490318630
       202          202.000000         3.850138733       300.414183998     -1262.785047299     -1258.768958529        13.043782074
       203          203.000000         3.917197572       305.646573737     -1262.886216470     -1258.802828103        12.370776791
       204          204.000000         3.876610483       302.479691240     -1262.805838122     -1258.762786236        12.355751749
       205          205.000000         3.810930241       297.354869028     -1262.701602978     -1258.723981333        12.387135491
       206          206.000000         3.912802248       305.303620483     -1262.845410786     -1258.765671474        12.353261188
       207          207.000000         3.869832006       301.950787996     -1262.789036533     -1258.752012786        12.384614665
       208          208.000000         3.922384776       306.051314975     -1262.856192408     -1258.766356403        12.362286121
       209          209.000000         3.976926886       310.307063810     -1262.927310793     -1258.782656764        12.331491180
       210          210.000000         3.879412265       302.698305397     -1262.782949243     -1258.735515714        12.327492192
       211          211.000000         3.951025247       308.286040592     -1262.881855557     -1258.762507952        12.327572633
       212          212.000000         3.911320772       305.188025603     -1262.832793994     -1258.752833327        12.344982434
       213          213.000000         3.838822488       299.531213117     -1262.732414961     -1258.724630696        12.346598275
       214          214.000000         3.926702856       306.388241115     -1262.849375934     -1258.753389678        12.307749677
       215          215.000000         3.864066677       301.500937595     -1262.741678422     -1258.707996727        12.343515772
       216          216.000000         3.903011540       304.539682420     -1262.829342496     -1258.756382721        12.382607933
       217          217.000000         3.948637417       308.099725712     -1262.902293997     -1258.783363385        12.966883544
       218          218.000000         3.830689495       298.896621319     -1262.735501515     -1258.734164261        13.013613448
       219          219.000000         3.884307993       303.080303666     -1262.820843140     -1258.765538342        12.374081641
       220          220.000000         3.853744347       300.695518698     -1262.807917059     -1258.782824053        12.407757241
       221          221.000000         3.820698969       298.117092074     -1262.800872399     -1258.808478117        13.011763144
       222          222.000000         3.910744497       305.143060708     -1262.916607696     -1258.833824420        12.988090474
       223          223.000000         3.817528234       297.869689645     -1262.784563721     -1258.794648731        12.377696902
       224          224.000000         3.842706882       299.834300134     -1262.828709381     -1258.813277276        12.429248553
       225          225.000000         3.887448079       303.325314620     -1262.915845291     -1258.855334269        13.022201806
       226          226.000000         3.791734214       295.857063603     -1262.778485810     -1258.813352013        13.099318765
       227          227.000000         3.856830269       300.936303478     -1262.876855095     -1258.846300338        12.455544602