    2699
 i =        0, time =        0.000, E =     -1262.6068031806
  C        11.9475990000       10.8399640000       14.5196650000
  O        12.5128200000       10.3258560000       13.6113100000
  O        10.3644070000       11.2337510000       12.0767550000
  N        11.1381250000       11.6078080000       15.0277950000
  H        10.7617730000       10.8553520000       11.2324800000
  H        11.3468760000       12.0383520000       15.9725030000
  H         9.9985890000       13.0885540000       13.9805140000
  N         9.7252040000       14.0996790000       13.8049950000
  H         9.0380170000       14.0933800000       14.5882550000
  H         9.8992200000       13.9684270000       12.1493520000
  H        10.6279590000       14.5717520000       13.9645140000
  O        27.1096820000       14.5645210000        0.9259010000
  H        27.1001320000       13.8499940000        0.2754540000
  H        26.3830380000       15.1412750000        0.5059420000
  O        -2.4699080000       19.4657270000        0.9462780000
  H        -2.8143630000       18.6031320000        0.5733450000
  H        -2.5936530000       19.2911620000        1.9402010000
  O         1.5862490000        5.8917670000      -12.8370870000
  H         0.8098720000        5.8897370000      -13.3710550000
  H         1.4391140000        6.6503240000      -12.2454400000
  O        27.6651630000       23.9760170000       -9.5231360000
  H        27.5072980000       24.9351940000       -9.5511050000
  H        26.8517340000       23.6933250000       -9.1888720000
  O        23.2825870000        7.5048530000        9.7369030000
  H        23.3030360000        6.6952960000        9.1752640000
  H        23.0870610000        7.1039180000       10.6204630000
  O        18.5959740000       -3.3525000000        9.1017020000
  H        19.3737850000       -2.7916980000        9.0680490000
  H        17.8902190000       -2.6970690000        9.2396340000
  O        -3.3223200000       21.9306110000       -5.2177870000
  H        -3.7659460000       22.7036130000       -4.7349540000
  H        -2.7399180000       22.4194150000       -5.7938970000
  O        -2.3046490000        7.8041090000        1.7232890000
  H        -2.2257900000        7.4469770000        0.8090740000
  H        -2.2318730000        8.7593590000        1.5705880000
  O        26.8856600000        3.6960250000       -5.1786780000
  H        26.2787110000        4.4308220000       -5.5127780000
  H        26.4396800000        2.9106260000       -5.6374600000
  O        19.2474190000       23.4049110000       -3.7922740000
  H        19.0853980000       23.7148800000       -2.8491090000
  H        19.0602550000       24.2709690000       -4.2924870000
  O         0.4374050000       10.2036750000        3.3744120000
  H        -0.5557980000       10.0146950000        3.5460700000
  H         0.4204790000       10.0367850000        2.4206700000
  O         8.0667900000       14.7818930000      -14.0226630000
  H         7.5544210000       15.0140640000      -13.2518020000
  H         8.1617110000       15.6303400000      -14.4914780000
  O        24.4532030000        5.1406420000       -5.5091470000
  H        24.0384100000        5.5512700000       -4.7208280000
  H        23.7167300000        5.0166660000       -6.0739870000
  O         2.3589250000       -0.4693500000      -10.6292300000
  H         2.2619300000        0.3601260000      -10.0955260000
  H         1.8784580000       -1.0875190000       -9.9949420000
  O        22.0345270000        3.2245420000       -5.4269310000
  H        22.2481560000        3.5864880000       -4.5075390000
  H        22.2472250000        2.2670990000       -5.2029370000
  O        12.4766710000       -0.4454670000      -10.9663210000
  H        13.0571350000        0.4261620000      -10.7082020000
  H        11.5419200000       -0.0389140000      -10.8164970000
  O        -2.9546310000       21.1117040000       -1.3357960000
  H        -2.2595410000       20.8873080000       -1.9828510000
  H        -2.7248950000       20.4722290000       -0.6175460000
  O        25.2504920000       -3.3513650000       -4.4467690000
  H        24.8561690000       -4.2516660000       -4.2389380000
  H        25.0535890000       -3.2875090000       -5.3516860000
  O        19.3402520000       30.1484580000       -6.4721640000
  H        19.4519480000       31.0943530000       -6.4505710000
  H        18.9951840000       30.0628200000       -7.4121850000
  O        19.2334560000       13.8953290000      -10.6427250000
  H        19.1684860000       14.6794400000      -11.2784140000
  H        19.0093120000       14.3940190000       -9.7548410000
  O        10.3682140000       13.6510190000      -14.7372440000
  H         9.4810510000       13.9234310000      -14.4783520000
  H        10.7568170000       14.5302440000      -15.0065510000
  O        16.9461590000       27.5366570000      -11.3048810000
  H        17.7463860000       27.2958370000      -10.7443630000
  H        16.3948350000       26.6824860000      -11.0648790000
  O        21.9688850000        5.7139970000       -7.4688230000
  H        22.9294320000        5.6688120000       -7.8538320000
  H        21.8106750000        4.7350900000       -7.6110800000
  O        22.5607550000       -0.4165120000       -7.6978980000
  H        22.7384890000        0.4611850000       -8.1302520000
  H        21.7965980000       -0.1354210000       -7.1494480000
  O        -1.2625690000        5.8473490000      -10.8540440000
  H        -1.6438570000        6.3804750000      -11.6144820000
  H        -1.0623790000        5.0086130000      -11.3709960000
  O        20.6608600000       11.6436500000       -0.8253260000
  H        20.3602220000       12.5777020000       -1.0388830000
  H        20.8743780000       11.7670970000        0.1036540000
  O        15.1467420000        7.1239610000        1.8950650000
  H        15.6495530000        7.9444240000        1.7506030000
  H        14.2409150000        7.4453890000        1.5385780000
  O         0.8053460000       25.5774990000       -0.0259900000
  H         0.2514510000       25.4978870000       -0.8396540000
  H         1.5668910000       26.0518490000       -0.3789530000
  O        25.5007780000        2.3593060000      -12.4613430000
  H        25.2486170000        1.4902740000      -12.0750400000
  H        24.7184890000        2.4823810000      -13.0657410000
  O        16.2180480000        0.6470530000       -0.7343340000
  H        15.7304610000        1.2950990000       -0.1799110000
  H        16.3300040000        1.1930300000       -1.5273650000
  O        25.1082150000       -1.3185730000        0.2368710000
  H        26.0771410000       -1.4665090000        0.4788740000
  H        25.1693060000       -0.5327160000       -0.2946050000
  O        -2.3324430000        5.5881180000      -16.9055140000
  H        -2.8407340000        5.0630610000      -17.5692370000
  H        -2.8943310000        5.4048940000      -16.1257800000
  O        20.4362910000       -5.0647390000        6.7913990000
  H        20.2659680000       -4.1347990000        6.6783840000
  H        19.4996640000       26.6137430000        6.8609770000
  O         6.3207480000       -4.2341330000        8.5739450000
  H         5.6442580000       -3.6476630000        9.0312520000
  H         6.9722650000       -3.6168270000        8.2514560000
  O         6.5359420000        5.2299690000       -2.5205650000
  H         6.1649890000        6.0088820000       -2.3041300000
  H         7.4081430000        5.4517350000       -2.9842610000
  O        12.2129190000       -4.5578190000       -9.5273090000
  H        12.4537320000       -4.8014810000      -10.4915860000
  H        12.6784280000       -3.6939330000       -9.5422710000
  O        24.9241770000       16.6008990000        6.2201960000
  H        25.7887100000       16.2087000000        5.9008940000
  H        25.2493440000       17.4073430000        6.6669850000
  O        24.4772950000        6.7960180000       -0.7978880000
  H        23.7703700000        7.4974220000       -0.8511720000
  H        25.0011560000        7.2039340000       -0.0613440000
  O        24.4489570000        4.9252540000       -8.5803140000
  H        24.3774530000        5.6574940000       -9.2208190000
  H        25.3776440000        4.7542510000       -8.5789590000
  O         5.0533270000        2.7153740000      -15.1088140000
  H         5.4200920000        3.2484660000      -14.3649030000
  H         5.0359870000        1.8106830000      -14.8182170000
  O         9.9340730000        3.2445950000        2.9117130000
  H        10.5749530000        3.9789610000        2.8738950000
  H         9.1045560000        3.7163920000        2.9827510000
  O         7.8774030000        1.4981020000       -3.6670780000
  H         7.2728670000        2.0848830000       -3.1580360000
  H         8.4105490000        2.1608950000       -4.0881370000
  O         6.0675400000        0.2981820000      -12.9897980000
  H         5.3720990000        0.1892430000      -13.6815810000
  H         5.7732970000       -0.3779210000      -12.3921780000
  O        27.6686690000        2.3507910000       -2.7203960000
  H        28.5311740000        2.7109180000       -2.4966410000
  H        27.5178790000        2.7912160000       -3.5888430000
  O        13.3308400000       11.8453940000        0.6449010000
  H        12.5488400000       11.2653380000        0.4568360000
  H        12.9646010000       12.7276930000        0.3683260000
  O         5.3630690000        9.4047560000      -11.0806630000
  H         6.2500370000        9.1250830000      -11.4209630000
  H         4.8654690000        9.3191690000      -11.9388190000
  O         8.2359280000       13.8058710000       -8.5986340000
  H         7.7345740000       13.5580660000       -7.8197780000
  H         8.1342210000       14.7651720000       -8.6711320000
  O        25.8194680000        5.8516480000        8.3285210000
  H        25.4320740000        6.0896380000        7.4357610000
  H        24.9461250000        5.6348800000        8.7660670000
  O        20.1342640000       10.5751960000        6.3988350000
  H        20.7418140000        9.9978780000        6.9494490000
  H        20.7182810000       10.9951940000        5.7237300000
  O        12.3001530000       -1.4583340000       -5.5318750000
  H        11.6801990000       -1.2225800000       -6.2405670000
  H        12.3488650000       -0.6690380000       -4.9592540000
  O        16.6753580000       14.6653630000       -1.7910210000
  H        16.1973550000       14.0490610000       -1.1344260000
  H        15.9102940000       14.8071230000       -2.4461780000
  O         3.7772530000        7.2957710000        9.8978860000
  H         3.2056300000        6.9495360000        9.1084430000
  H         4.6408800000        6.9453930000        9.7048570000
  O         7.3844890000       18.5112820000        3.5274350000
  H         6.9149560000       18.7322180000        2.7494090000
  H         6.6930100000       18.7150290000        4.1915710000
  O         8.8022890000       23.1325050000       -0.4483150000
  H         8.9759250000       24.0896720000       -0.3549390000
  H         8.4471700000       22.9357600000        0.4094460000
  O         9.6213430000       -3.7589980000      -11.1239670000
  H        10.0419370000       -4.2987450000      -10.4099860000
  H        10.3620570000       -3.5934940000      -11.7064240000
  O        15.1835370000       20.0817390000        9.7827520000
  H        14.9318070000       19.6553630000       10.5838550000
  H        15.3414580000       19.3365350000        9.1162760000
  O         5.2688540000       -6.9493300000        4.5351730000
  H         5.6941560000       -6.9872070000        5.4390300000
  H         5.1341770000       -5.9542020000        4.5169650000
  O        13.6346530000       -1.6324290000      -14.2721070000
  H        14.2191100000       -0.9313830000      -14.7357040000
  H        14.2313920000       -1.9272230000      -13.5614690000
  O        22.1759610000       21.6723730000      -11.8716980000
  H        22.6690100000       20.9386830000      -11.4184630000
  H        22.1402760000       22.3560200000      -11.1469480000
  O         3.5952390000       -8.5124680000        0.7652110000
  H         3.5306480000       24.4828360000        0.7547880000
  H         4.6145250000       -8.5473310000        0.6386920000
  O         3.5428310000       15.2211130000        0.1849380000
  H         3.6835770000       14.5026940000        0.8219570000
  H         2.7112270000       14.9660310000       -0.1925370000
  O        22.8836310000       18.0610600000        5.0708230000
  H        23.0033050000       18.8998090000        5.4590750000
  H        23.6824250000       17.5616150000        5.2907260000
  O         7.0438630000        5.7428360000        0.5388610000
  H         6.0943980000        5.9448220000        0.4523050000
  H         7.1214190000        5.1214440000       -0.1974180000
  O        29.2479230000        4.3217750000       11.3762280000
  H        29.6983010000        4.7512000000       10.6232680000
  H        29.2722150000        5.1117230000       11.9488700000
  O         4.4362790000       -3.0819430000       -1.2353230000
  H         5.3224710000       -2.6528610000       -1.4391710000
  H         4.1416730000       -2.5385040000       -0.5076150000
  O        17.2298180000       20.1408820000        2.5913530000
  H        17.6208040000       20.6358050000        3.3041270000
  H        16.4261320000       20.6677880000        2.4447130000
  O        24.6299420000       25.9306560000        1.8317570000
  H        24.1286240000       26.7367000000        1.7544930000
  H        25.0091150000       25.8364770000        0.9611810000
  O        20.2312470000        7.6981480000       -3.4209420000
  H        20.4254130000        8.6896420000       -3.3824570000
  H        20.2696990000        7.4739440000       -2.4715650000
  O        11.0062010000       -1.3139700000       10.4050970000
  H        11.4317470000       -0.4235500000       10.3858930000
  H        11.7326070000       -1.9013610000       10.3350240000
  O         2.1714310000       28.6146010000        9.0167870000
  H         1.2176770000       28.7493480000        8.8663390000
  H         2.5142150000       28.6255040000        8.1267200000
  O         0.5315540000       -4.0976430000       -3.2187070000
  H         0.7288400000       -4.2563930000       -4.1822970000
  H         0.0375990000       -3.2218520000       -3.2915740000
  O         9.0869230000        8.2844740000      -14.8663660000
  H         9.8141330000        7.6406920000      -14.7266950000
  H         9.5937610000        9.1521010000      -14.8002070000
  O         5.2441530000       -6.6872550000       -5.9038490000
  H         5.1536790000       -6.2366930000       -5.0988600000
  H         5.8258350000       -6.1457300000       -6.4455590000
  O        28.5682410000       11.8960130000      -15.1063770000
  H        28.5432700000       10.9207160000      -15.1004340000
  H        27.8768020000       12.1186820000      -14.4575460000
  O        14.6869700000       12.0499210000        3.1808610000
  H        15.0491910000       11.3174330000        3.6445950000
  H        14.0203320000       11.6829390000        2.6106490000
  O        11.9973240000        8.1724290000       -1.7549260000
  H        12.3501450000        9.0352320000       -2.0541360000
  H        12.2125560000        7.6852790000       -2.6206540000
  O         7.7384880000       12.0253820000      -13.7501030000
  H         7.9849260000       12.9344250000      -14.0393450000
  H         7.4681160000       12.2167270000      -12.8269860000
  O        20.5291080000       -2.4990050000       -1.6834680000
  H        19.7073880000       -1.9562700000       -1.7308770000
  H        20.8997690000       -2.1936350000       -2.5953090000
  O        23.1981240000        2.6908760000      -14.0531990000
  H        22.4822010000        3.1499390000      -14.4231470000
  H        22.7432670000        1.7694800000      -13.9109760000
  O         9.2180050000       18.6875880000       -1.0217610000
  H         9.3427590000       19.1845170000       -1.8776390000
  H         8.2573890000       18.8179740000       -0.9433070000
  O        24.1003650000       -2.4497360000       -9.9821740000
  H        24.6023810000       -3.1841750000      -10.4625130000
  H        23.2242110000       -2.8458000000      -10.0018370000
  O        12.1625700000       16.5470580000       -8.3525550000
  H        12.9237440000       17.1063160000       -8.1459630000
  H        11.5219260000       16.8686330000       -7.6125730000
  O        17.4760990000       12.3190670000        6.5437090000
  H        17.1546380000       11.7978730000        5.7234710000
  H        18.3987480000       12.0651800000        6.6799490000
  O         5.6210470000       16.1209660000        8.0504770000
  H         4.6477590000       16.0116600000        8.2195420000
  H         5.9342030000       15.5400780000        7.3236780000
  O        10.0597340000        1.4059780000        4.9515810000
  H        10.0113700000        2.0148170000        4.1759860000
  H         9.2104840000        1.4720360000        5.3396320000
  O        17.3291490000       15.7394030000       10.5923190000
  H        17.2880550000       14.9863970000        9.9233850000
  H        16.4840600000       15.6851320000       11.0445570000
  O        24.4078690000       24.0545410000        9.3397960000
  H        23.9164180000       23.2579250000        8.9565510000
  H        23.6579590000       24.6904090000        9.2217360000
  O         6.9536990000        7.9943240000       -3.4832130000
  H         6.2997240000        8.2246190000       -2.7771010000
  H         7.5186270000        8.8209660000       -3.4074130000
  O         2.4984480000       -3.5306550000        6.1109130000
  H         2.3744930000       -2.8572340000        5.4018630000
  H         2.0948260000       -4.3034510000        5.7402920000
  O         2.2803590000        1.1142520000        4.5191160000
  H         2.0953460000        0.6705110000        5.3796710000
  H         1.5183910000        1.7584440000        4.5157420000
  O         6.4241990000       -1.3883440000        1.6520900000
  H         5.5916830000       -0.9232250000        1.6250410000
  H         6.9532570000       -0.7948440000        1.1555900000
  O        13.8403640000       15.7701390000       12.4749990000
  H        13.5446990000       15.1670860000       11.7463740000
  H        14.7531790000       15.5066630000       12.7223410000
  O        19.7122330000       24.9216380000      -13.3705670000
  H        18.9673880000       24.4296820000      -13.8376520000
  H        19.4555110000       24.8226550000      -12.4524010000
  O         9.8659220000        0.5236970000      -11.0197800000
  H         9.3186440000        0.6632760000      -11.7652880000
  H         9.7782860000        1.3994270000      -10.5587340000
  O        17.3240010000       28.4559150000       -1.6918620000
  H        16.7459140000       -2.8439320000       -1.3211170000
  H        17.7949240000       29.0953660000       -2.3040710000
  O        14.2457110000       20.3404010000       -1.8934250000
  H        13.4903960000       19.7921410000       -1.6466550000
  H        14.9994860000       19.8830570000       -1.5573680000
  O         6.9636870000        1.3279650000        8.4290200000
  H         6.0736100000        1.7940370000        8.3905530000
  H         7.1784950000        1.4134690000        7.4307770000
  O        22.2620580000       -5.6295290000        4.4321970000
  H        22.6799760000       -4.8163740000        4.0798140000
  H        21.8668330000       26.7377680000        5.2560570000
  O         1.4685310000       12.6090400000        3.2039770000
  H         1.0230050000       11.7226400000        3.3102840000
  H         1.8162270000       12.6964430000        4.1147490000
  O         6.0081810000        6.6479450000       -5.3751100000
  H         5.2600360000        6.2638860000       -4.9206590000
  H         6.4950930000        7.0929990000       -4.6098970000
  O        13.2354740000        9.1038180000        8.4165360000
  H        13.6229420000        8.7234800000        9.2709700000
  H        13.9942480000        9.0452250000        7.7337940000
  O        13.8773020000        6.6997080000      -10.4314020000
  H        14.5885910000        7.2526150000      -10.2762160000
  H        13.0751160000        7.3081470000      -10.2998830000
  O         2.0103360000       12.4395330000      -14.9013240000
  H         3.0007670000       12.3969020000      -14.9823640000
  H         1.8231990000       11.5728160000      -14.6126550000
  O        23.1507210000        4.4879650000       -0.4788800000
  H        24.0480790000        4.1889500000       -0.0967450000
  H        23.5440220000        5.4204160000       -0.6664120000
  O         6.1742900000       -2.4581300000       -3.9034930000
  H         6.0923410000       -1.5692250000       -4.3307420000
  H         6.4112730000       -2.1960400000       -3.0054860000
  O        15.7618230000        1.6393400000        8.9998050000
  H        15.4052080000        0.8593680000        9.4645090000
  H        16.6624130000        1.3320240000        8.7989320000
  O         5.7665590000       19.4172420000        1.3084410000
  H         5.5801330000       19.6396030000        0.4088350000
  H         5.6447490000       20.2106510000        1.8069080000
  O         5.2541780000       20.4914340000        9.3392850000
  H         5.8579270000       21.2651500000        9.1178170000
  H         5.9136610000       19.8227310000        9.6394820000
  O        14.3580120000       -2.7983400000       -4.2386620000
  H        13.7025820000       -2.5928070000       -4.9588560000
  H        15.1539980000       -2.3818240000       -4.6528480000
  O         9.4846430000       25.4154450000       -4.5382540000
  H        10.3446420000       -6.3710110000       -4.0746190000
  H         8.9757710000       -5.7912080000       -4.2763380000
  O        -2.0280550000       17.1546570000      -13.0212970000
  H        -1.4303260000       17.5624100000      -12.2996230000
  H        -2.7700040000       17.8304500000      -12.9496660000
  O        -6.7361140000       -1.9606570000        5.9658220000
  H        -6.8806250000       -2.9390990000        5.8311100000
  H        -6.2559720000       -1.9603930000        6.8320190000
  O         9.6847320000        4.6048830000      -12.4997130000
  H         8.9115810000        4.5376820000      -13.0747110000
  H        10.1651770000        3.7422630000      -12.8383670000
  O        22.2098330000        0.7078890000       -4.4079490000
  H        21.8800750000       -0.1891350000       -4.4325210000
  H        22.1871200000        0.8771960000       -3.4905290000
  O        14.8027960000        5.1163110000       -4.1512190000
  H        15.6688320000        5.3664250000       -4.4074920000
  H        14.3720720000        5.8470420000       -3.7141790000
  O         6.3944170000        5.9244960000        9.3234610000
  H         6.6996760000        6.3633850000        8.5589510000
  H         7.1794300000        5.5487680000        9.6459050000
  O        22.3653050000       -4.3714790000       -1.0593170000
  H        22.0780930000       27.3070240000       -0.2041660000
  H        21.6607480000       -3.7291480000       -1.2899100000
  O         1.7296990000        3.9633230000       -1.0038510000
  H         1.5914270000        3.3458750000       -1.7577740000
  H         1.2504650000        3.5734000000       -0.2679270000
  O        24.4157090000       25.0767500000       -7.0149380000
  H        24.7395530000       25.4900470000       -6.1857170000
  H        23.4540250000       25.2229710000       -6.8997540000
  O        -2.6522420000       -5.6146550000       -0.2972250000
  H        -2.7984240000       -5.7012770000        0.7051440000
  H        -3.0601880000       -6.4899530000       -0.5472840000
  O         7.2231980000        4.2210560000        2.9691070000
  H         7.0994970000        4.8865350000        2.2408640000
  H         6.7036980000        4.6750730000        3.6782030000
  O        28.5816710000        1.3906220000        2.8210020000
  H        29.3714940000        1.1504100000        2.3879670000
  H        28.5906350000        0.6878760000        3.5632750000
  O        19.0391330000        9.3487950000        3.7210010000
  H        19.5660510000        8.7064300000        3.2906020000
  H        19.4840970000        9.5737670000        4.5575910000
  O        -0.0436870000       10.4952900000        0.4609620000
  H        -0.8798870000       11.0077070000        0.6986310000
  H         0.0262210000       10.6852820000       -0.5127380000
  O        10.6357190000       11.8006660000        3.4566950000
  H        11.0278210000       10.9068370000        3.2688530000
  H        10.1001020000       11.6191810000        4.2541760000
  O         9.0417030000       25.4976940000       -7.5453050000
  H         8.7978990000       26.4845120000       -7.6477370000
  H         9.1526710000       25.5423790000       -6.5561540000
  O        27.6551340000       23.1243780000      -12.1821120000
  H        27.3016820000       23.3105200000      -11.2925840000
  H        -3.5859240000       23.7435910000      -12.1914900000
  O        -0.9217010000       25.4775240000       -8.2064120000
  H        -1.3738030000       25.9622040000       -7.4866680000
  H        -0.7769420000       24.5947550000       -7.7627170000
  O        -1.6306530000       -1.4126280000        3.4893680000
  H        -1.7056560000       -1.3702250000        4.4937580000
  H        -1.2193500000       -2.2913680000        3.4427370000
  O         9.7497020000       -3.1389540000       -0.3591560000
  H        10.4117450000       -2.4398420000       -0.2775000000
  H        10.2746370000       -3.9499570000       -0.5576870000
  O        14.4204790000       21.3983800000      -10.2369680000
  H        15.3233950000       21.7292540000      -10.4822520000
  H        14.3155790000       21.8343700000       -9.3478360000
  O        10.8136690000       10.3824840000        0.1965290000
  H        10.0847140000       10.9725720000        0.0147640000
  H        10.3571340000        9.5392370000        0.2674250000
  O        -3.7002890000       23.8979380000       10.2958560000
  H        -2.8579320000       23.7954810000       10.7547040000
  H        -3.5999610000       23.1530670000        9.6294350000
  O         3.4087270000       22.9484790000        4.4046260000
  H         4.0402370000       23.6926710000        4.5001980000
  H         3.6718180000       22.6301540000        3.5134630000
  O        20.5612240000       -1.8787620000      -14.0632880000
  H        20.1953110000       -2.6842360000      -13.5783960000
  H        19.9456630000       -1.8917550000      -14.8161020000
  O        -0.8033910000       12.6050510000       -7.8037360000
  H        -0.6257510000       13.5130090000       -7.5765990000
  H        -1.3439690000       12.6700340000       -8.6208870000
  O        20.3582400000        7.8154670000       -8.5032360000
  H        20.5662040000        8.2616020000       -7.6792030000
  H        20.7369170000        6.9266500000       -8.3250460000
  O        13.7216420000        2.3846240000      -13.1110670000
  H        12.7716420000        2.7157410000      -13.0587950000
  H        14.1690730000        3.2873010000      -12.9023730000
  O        24.8930070000       -0.2168410000      -11.3402810000
  H        24.8207890000       -0.6236190000      -12.2385270000
  H        24.5645830000       -1.0403410000      -10.8619360000
  O        14.4128440000        3.2316060000       11.3962170000
  H        13.8923230000        2.4042900000       11.3788430000
  H        15.0646530000        3.1710170000       10.6707700000
  O        19.5914750000       20.5262950000      -10.2754700000
  H        19.9874610000       19.6548980000      -10.5264780000
  H        20.3239060000       20.7903650000       -9.6237080000
  O        16.3395500000       16.2997510000      -13.3307140000
  H        15.6700110000       16.1698950000      -12.6381040000
  H        16.4212210000       17.2651420000      -13.3343140000
  O         9.0552620000        7.5129090000       15.4205140000
  H         9.0428070000        7.1282960000       14.5072100000
  H         8.7730770000        8.4108420000       15.2200370000
  O        26.9277710000       13.1595420000       -1.6161210000
  H        26.7346460000       12.1870890000       -1.7957500000
  H        26.1635880000       13.6022530000       -1.9374760000
  O         9.0855590000       -1.7925610000       -9.3809910000
  H         8.9596350000       -2.4773220000      -10.0931910000
  H         9.3248260000       -1.0456930000      -10.0073210000
  O        -3.3113820000       16.8574910000        0.2566790000
  H        -3.5956790000       16.9091190000       -0.6750550000
  H        -3.9278010000       16.1941970000        0.5981190000
  O        10.0242470000        1.8801860000        0.3894640000
  H        10.0777930000        2.1921990000        1.3055070000
  H        10.7922900000        2.3059420000       -0.0639040000
  O         6.9214360000       11.0412620000       -5.0552710000
  H         7.7745330000       10.8854790000       -4.6960030000
  H         6.3128490000       10.7123750000       -4.4173890000
  O        15.2022620000       17.0810390000        4.2455500000
  H        15.9056730000       17.3913780000        4.7818000000
  H        15.2088420000       16.1320190000        4.5164300000
  O         7.6603120000       12.3579030000      -10.9537260000
  H         8.0133980000       13.1486230000      -10.4258380000