#     Step Nr.          Time[fs]        Kin.[a.u.]          Temp[K]            Pot.[a.u.]        Cons Qty[a.u.]        UsedTime[s]
         0            0.000000         3.843405441       300.000000000     -1268.582212026     -1264.738331562         0.000000000
         1            1.000000         3.728168459       291.005087748     -1268.439422616     -1264.709940175        51.894060243
         2            2.000000         3.695350532       288.443458921     -1268.412019194     -1264.714552355        13.884431332
         3            3.000000         3.742425570       292.117937666     -1268.464389250     -1264.719070234        13.298556749
         4            4.000000         3.789298058       295.776606101     -1268.500914504     -1264.707955761        13.276215427
         5            5.000000         3.852382172       300.700685706     -1268.585710920     -1264.728899885        13.298943393
         6            6.000000         3.770698968       294.324839710     -1268.483283855     -1264.707391409        12.719925866
         7            7.000000         3.762724795       293.702409425     -1268.460848021     -1264.692186484        12.655377544
         8            8.000000         3.858660967       301.190781951     -1268.580519551     -1264.715183226        13.273712751
         9            9.000000         3.822479648       298.366620927     -1268.538066403     -1264.708167089        13.258042268
        10           10.000000         3.794691682       296.197609662     -1268.517462839     -1264.714617163        12.681027491
        11           11.000000         3.776365463       294.767142337     -1268.491085380     -1264.705845236        13.303167846
        12           12.000000         3.822249830       298.348682286     -1268.481586782     -1264.649750463        12.736588478
        13           13.000000         3.959119403       309.032143275     -1268.646238059     -1264.676804954        13.289122891
        14           14.000000         3.901089623       304.502583649     -1268.577049683     -1264.664892937        13.258823290
        15           15.000000         3.830863284       299.021012145     -1268.496681034     -1264.653997924        12.692789856
        16           16.000000         3.876193362       302.559286606     -1268.587588423     -1264.698824285        13.266666144
        17           17.000000         3.886034933       303.327478136     -1268.578977640     -1264.679609584        13.282777075
        18           18.000000         3.922332510       306.160713672     -1268.637990152     -1264.701547977        13.340486765
        19           19.000000         3.858511442       301.179110608     -1268.605078341     -1264.731669681        13.269797605
        20           20.000000         3.814186934       297.719326681     -1268.542681494     -1264.712816860        13.916737098
        21           21.000000         3.948376688       308.193612266     -1268.704809810     -1264.739966789        13.335035406
        22           22.000000         3.964607401       309.460513232     -1268.694874797     -1264.712978201        13.262676291
        23           23.000000         3.898679224       304.314438054     -1268.617354514     -1264.700545343        13.272897348
        24           24.000000         3.853501072       300.788022301     -1268.576985001     -1264.704512984        13.327318098
        25           25.000000         3.838384513       299.608087556     -1268.504181273     -1264.645988146        12.637007985
        26           26.000000         3.961818558       309.242827855     -1268.668273014     -1264.685793391        13.270490348
        27           27.000000         3.965798426       309.553479583     -1268.702225390     -1264.714877765        13.961633485
        28           28.000000         3.866054777       301.767911515     -1268.583963465     -1264.695459371        13.903003976
        29           29.000000         3.895981129       304.103836207     -1268.618385464     -1264.699054555        13.878734604
        30           30.000000         3.913277926       305.453951111     -1268.625454341     -1264.687909867        13.861968312
        31           31.000000         3.935044431       307.152952583     -1268.652570987     -1264.692323802        13.934075847
        32           32.000000         3.897740492       304.241164594     -1268.567910977     -1264.644015779        12.625581540
        33           33.000000         3.805222321       297.019586851     -1268.448292564     -1264.615969402        12.643433314
        34           34.000000         3.896664221       304.157155441     -1268.564568128     -1264.639859670        12.683064152
        35           35.000000         3.964314770       309.437671680     -1268.638992614     -1264.645659989        12.639798548
        36           36.000000         3.922719178       306.190895403     -1268.597697582     -1264.644961362        12.654680714
        37           37.000000         3.885948458       303.320728252     -1268.586594633     -1264.669623248        12.625186488
        38           38.000000         3.807819484       297.222310421     -1268.482069382     -1264.642228051        12.691647358
        39           39.000000         3.841377236       299.841686881     -1268.519776945     -1264.645388726        12.688531950
        40           40.000000         3.871923981       302.226036776     -1268.566899593     -1264.660967404        12.676349863
        41           41.000000         3.782715692       295.262814455     -1268.405696629     -1264.587980147        12.630954158
        42           42.000000         3.829744458       298.933681293     -1268.492752637     -1264.627028739        12.644336376
        43           43.000000         3.898258719       304.281615206     -1268.565940453     -1264.630710803        12.666225970
        44           44.000000         3.905312801       304.832227106     -1268.567589693     -1264.624295062        12.675642140
        45           45.000000         3.883954270       303.165070358     -1268.519854055     -1264.596896986        12.680640947
        46           46.000000         3.777800144       294.879127478     -1268.370395400     -1264.552582150        12.625858359
        47           47.000000         3.815103533       297.790872569     -1268.409707802     -1264.553599345        12.644211486
        48           48.000000         3.902989312       304.650865330     -1268.519375044     -1264.574377041        12.617326707
        49           49.000000         3.860885063       301.364385444     -1268.457188769     -1264.553276610        12.708039518
        50           50.000000         3.859768527       301.277233332     -1268.465693705     -1264.561880884        12.632116735
        51           51.000000         3.879289539       302.800961145     -1268.477147551     -1264.552790409        12.675719086
        52           52.000000         3.943259963       307.794222355     -1268.587717956     -1264.598347760        12.649056740
        53           53.000000         3.999554070       312.188302636     -1268.662382453     -1264.615639264        12.672534943
        54           54.000000         3.889250972       303.578508505     -1268.504415353     -1264.566876347        12.645255052
        55           55.000000         3.853133428       300.759325524     -1268.476016033     -1264.573505238        12.686612293
        56           56.000000         3.926771907       306.507234255     -1268.563577839     -1264.586329602        12.681464575
        57           57.000000         3.952756765       308.535502569     -1268.583369371     -1264.579007881        12.692850627
        58           58.000000         3.947474624       308.123200925     -1268.554000179     -1264.553768410        12.025827125
        59           59.000000         3.838178035       299.591970732     -1268.450281053     -1264.558192433        12.665136199
        60           60.000000         3.810068332       297.397845977     -1268.429352065     -1264.564239816        12.653224580
        61           61.000000         3.900941876       304.491051146     -1268.548229316     -1264.591105457        12.632698599
        62           62.000000         3.854833214       300.892003690     -1268.440398818     -1264.528231772        12.028282765
        63           63.000000         3.793115954       296.074615001     -1268.378217007     -1264.526630530        12.641934756
        64           64.000000         3.777568687       294.861060912     -1268.342570662     -1264.505416150        12.680173282
        65           65.000000         3.809003874       297.314758903     -1268.369104759     -1264.499410480        12.635400403
        66           66.000000         3.903353457       304.679288932     -1268.488473300     -1264.523313160        11.999004055
        67           67.000000         3.836516587       299.462285138     -1268.408178553     -1264.508728423        12.014062759
        68           68.000000         3.747225745       292.492619001     -1268.307805438     -1264.496545356        12.056965955
        69           69.000000         3.789517789       295.793757390     -1268.370651936     -1264.516023055        12.066480000
        70           70.000000         3.816210417       297.877271242     -1268.400368396     -1264.517972910        12.648603093
        71           71.000000         3.855760125       300.964354429     -1268.445762271     -1264.522740526        12.650168214
        72           72.000000         3.835830417       299.408725597     -1268.433753744     -1264.529583166        12.645251654
        73           73.000000         3.810191368       297.407449648     -1268.389700975     -1264.510100754        12.639082644
        74           74.000000         3.916165570       305.679348389     -1268.530643783     -1264.543994705        12.015275221
        75           75.000000         3.920762974       306.038202358     -1268.531425831     -1264.539079077        12.048472814
        76           76.000000         3.848766754       300.418481452     -1268.437249298     -1264.515796362        12.066464413
        77           77.000000         3.833521084       299.228468797     -1268.429687638     -1264.522390011        12.627859715
        78           78.000000         3.847398608       300.311689743     -1268.357522735     -1264.435260914        11.999127667
        79           79.000000         3.942453926       307.731306479     -1268.476719804     -1264.458300051        12.619958691
        80           80.000000         3.946556208       308.051513295     -1268.476918172     -1264.453264009        12.660356656
        81           81.000000         3.867768926       301.901710727     -1268.362530353     -1264.416525833        12.059085641
        82           82.000000         3.904128453       304.739781869     -1268.416142046     -1264.432641385        12.010766987
        83           83.000000         3.935968644       307.225092767     -1268.447602800     -1264.431105946        12.030065205
        84           84.000000         3.948253399       308.183988821     -1268.461695546     -1264.431735976        12.014184143
        85           85.000000         3.914430351       305.543904564     -1268.428953609     -1264.431625277        12.008051250
        86           86.000000         3.839409156       299.688066817     -1268.335497879     -1264.412005441        12.084951609
        87           87.000000         3.917405922       305.776165065     -1268.445091386     -1264.442416803        12.022627238
        88           88.000000         3.975353166       310.299282227     -1268.574229694     -1264.512390671        12.619240649
        89           89.000000         3.914764543       305.569990151     -1268.427838563     -1264.425351253        12.640214097
        90           90.000000         3.872350759       302.259349284     -1268.394516200     -1264.433210984        12.637088832
        91           91.000000         3.827635990       298.769103177     -1268.333138277     -1264.415328318        12.705230229
        92           92.000000         3.873634436       302.359547680     -1268.381030954     -1264.416008032        12.042132031
        93           93.000000         3.908474453       305.079012286     -1268.426681163     -1264.425589615        12.021933828
        94           94.000000         3.819539280       298.137108196     -1268.311699810     -1264.398318057        12.016441252
        95           95.000000         3.831204956       299.047681618     -1268.341122324     -1264.414868793        12.023439523
        96           96.000000         3.882948353       303.086552701     -1268.388664501     -1264.409457870        12.021402042
        97           97.000000         3.891592874       303.761307514     -1268.388579744     -1264.399507653        12.038584329
        98           98.000000         3.866798362       301.825952580     -1268.437713474     -1264.472213934        12.010702513
        99           99.000000         3.759085023       293.418304176     -1268.313098364     -1264.454113855        12.073117204
       100          100.000000         3.768973346       294.190144944     -1268.326989022     -1264.456952393        12.629709747
       101          101.000000         3.849644179       300.486969551     -1268.431348821     -1264.479482176        12.060254853
       102          102.000000         3.822610562       298.376839509     -1268.425526825     -1264.499533582        12.020573333
       103          103.000000         3.797556758       296.421245362     -1268.410192637     -1264.508110733        12.004854567
       104          104.000000         3.766708986       294.013398516     -1268.361610863     -1264.489257651        12.623490162
       105          105.000000         3.788512896       295.715319690     -1268.399827605     -1264.504572446        12.015154049
       106          106.000000         3.844750146       300.104961994     -1268.456274268     -1264.503688523        12.651925661
       107          107.000000         3.772409750       294.458376123     -1268.364945273     -1264.483617809        12.677227326
       108          108.000000         3.747429858       292.508551244     -1268.338919062     -1264.481521969        12.024860650
       109          109.000000         3.805533596       297.043883671     -1268.411564475     -1264.495032421        12.630725432
       110          110.000000         3.840883442       299.803143409     -1268.435540444     -1264.482628759        12.609601974
       111          111.000000         3.876231706       302.562279584     -1268.481381430     -1264.492088909        12.632514048
       112          112.000000         3.822729017       298.386085646     -1268.416433597     -1264.479615567        12.684458792
       113          113.000000         3.793493437       296.104079686     -1268.438868350     -1264.530278564        12.644443549
       114          114.000000         3.855679746       300.958080354     -1268.523276265     -1264.551502542        12.646946914
       115          115.000000         3.843115629       299.977378508     -1268.446759194     -1264.486551333        12.665901184
       116          116.000000         3.838621375       299.626575940     -1268.432961745     -1264.476258466        12.644612379
       117          117.000000         3.853880920       300.817671637     -1268.432838100     -1264.459891262        12.029175494
       118          118.000000         3.868603940       301.966888430     -1268.418128329     -1264.429475198        12.002022721
       119          119.000000         3.930356876       306.787061857     -1268.492135951     -1264.440737375        12.031438604
       120          120.000000         3.883000410       303.090616085     -1268.436446357     -1264.431401988        12.040705856
       121          121.000000         3.831456243       299.067295997     -1268.368998159     -1264.414507553        12.017392188
       122          122.000000         3.872824925       302.296360665     -1268.426760492     -1264.429919282        11.998834383
       123          123.000000         3.880703319       302.911314826     -1268.426610141     -1264.420904459        12.018913947
       124          124.000000         3.908473277       305.078920493     -1268.454580458     -1264.420113497        12.004844073
       125          125.000000         3.906450189       304.921006809     -1268.415732342     -1264.382288918        12.061709672
       126          126.000000         3.898377616       304.290895862     -1268.417472451     -1264.391098358        12.042328216
       127          127.000000         3.974151747       310.205504551     -1268.502327040     -1264.399161324        12.002106372
       128          128.000000         3.959415874       309.055284540     -1268.483377893     -1264.393906214        12.004341498
       129          129.000000         3.897527751       304.224558955     -1268.443982000     -1264.415352521        12.015324403
       130          130.000000         3.891668137       303.767182212     -1268.447593245     -1264.423782559        12.070802990
       131          131.000000         3.895793145       304.089162961     -1268.456971563     -1264.427993896        12.027036805
       132          132.000000         3.955738724       308.768261701     -1268.531133335     -1264.441156281        11.993821550
       133          133.000000         3.947335757       308.112361628     -1268.495227532     -1264.412580554        12.050329067
       134          134.000000         3.876256868       302.564243649     -1268.364345399     -1264.351704988        12.649984762
       135          135.000000         3.900380352       304.447220980     -1268.405974441     -1264.368145071        12.661217775
       136          136.000000         3.901593945       304.541948880     -1268.406734382     -1264.366621162        11.997889746
       137          137.000000         3.884393566       303.199359919     -1268.388585598     -1264.364603208        12.061098639
       138          138.000000         3.861264844       301.394029575     -1268.368167037     -1264.366251203        12.021505598
       139          139.000000         3.812927961       297.621056555     -1268.305534374     -1264.350910099        12.021640897
       140          140.000000         3.867159696       301.854156804     -1268.375558396     -1264.365669888        12.011574220
       141          141.000000         3.893835954       303.936392882     -1268.410212146     -1264.372610121        12.014938645
       142          142.000000         3.837752606       299.558763551     -1268.342630459     -1264.360080705        12.094352253
       143          143.000000         3.821975511       298.327270092     -1268.335085501     -1264.367301809        12.037195854
       144          144.000000         3.800738257       296.669579730     -1268.304065524     -1264.356527632        12.013200831
       145          145.000000         3.826853936       298.708059345     -1268.358262528     -1264.383634492        12.642310645
       146          146.000000         3.843248883       299.987779705     -1268.388327188     -1264.396338188        12.628118094
       147          147.000000         3.774129949       294.592647614     -1268.292972896     -1264.369155844        12.043950986
       148          148.000000         3.795930051       296.294271465     -1268.430857597     -1264.484320978        12.682546102
       149          149.000000         3.826529964       298.682771523     -1268.507453195     -1264.529410178        12.667007983
       150          150.000000         3.802803810       296.830808080     -1268.510649101     -1264.555439707        12.635106251
       151          151.000000         3.788185172       295.689738936     -1268.508418626     -1264.566957614        12.632705439
       152          152.000000         3.726623798       290.884518033     -1268.432896911     -1264.552157442        12.654287286
       153          153.000000         3.752931728       292.938003929     -1268.464527809     -1264.556674739        12.684464205
       154          154.000000         3.819106768       298.103348189     -1268.545165601     -1264.570348147        12.627691813
       155          155.000000         3.788128816       295.685340008     -1268.499908213     -1264.555292171        12.711746346
       156          156.000000         3.786827434       295.583759671     -1268.530246818     -1264.586178260        12.634818271
       157          157.000000         3.798839656       296.521382937     -1268.544515124     -1264.587699253        12.625165161
       158          158.000000         3.830075887       298.959551233     -1268.576040971     -1264.587266894        12.682925142
       159          159.000000         3.876150900       302.555972258     -1268.638815536     -1264.603248370        12.674732123
       160          160.000000         3.819243641       298.114031911     -1268.566604551     -1264.587232471        12.645772919
       161          161.000000         3.808470114       297.273095851     -1268.556353848     -1264.587061836        12.643612016
       162          162.000000         3.866417466       301.796221484     -1268.628770016     -1264.600846928        13.244601596
       163          163.000000         3.872358404       302.259946033     -1268.627196781     -1264.592648752        12.663298994
       164          164.000000         3.875062512       302.471017233     -1268.641169477     -1264.603235608        12.651963908
       165          165.000000         3.824500448       298.524356011     -1268.597107643     -1264.609062061        12.672294632
       166          166.000000         3.804659094       296.975623737     -1268.573527445     -1264.604667250        12.618230216
       167          167.000000         3.855490067       300.943274869     -1268.644705195     -1264.624369958        12.651792057
       168          168.000000         3.820009430       298.173806104     -1268.606890970     -1264.621399225        12.705095895
       169          169.000000         3.794427984       296.177026487     -1268.539163103     -1264.578633481        12.618096694
       170          170.000000         3.791771089       295.969640473     -1268.544811364     -1264.586338911        13.245464820
       171          171.000000         3.773304549       294.528220349     -1268.563174480     -1264.622589028        13.265837464
       172          172.000000         3.808749921       297.294936417     -1268.554791774     -1264.578200419        13.296964526
       173          173.000000         3.770514876       294.310470269     -1268.510565125     -1264.571664669        13.873705495
       174          174.000000         3.725474958       290.794844412     -1268.459509289     -1264.565132232        13.246756759
       175          175.000000         3.763568162       293.768239059     -1268.518458862     -1264.585500549        13.235943612
       176          176.000000         3.748852309       292.619581730     -1268.497845534     -1264.579137008        12.698677436
       177          177.000000         3.738339537       291.798999140     -1268.491674287     -1264.583038688        12.647370193
       178          178.000000         3.725424336       290.790893057     -1268.481440690     -1264.585308271        12.612476911
       179          179.000000         3.715487120       290.015235993     -1268.478779180     -1264.592201593        12.689117964
       180          180.000000         3.784980932       295.439629517     -1268.588746352     -1264.632317861        12.662476588
       181          181.000000         3.775921313       294.732473905     -1268.543721652     -1264.596011164        13.300700828
       182          182.000000         3.739758627       291.909767297     -1268.508488088     -1264.596619278        13.297756199
       183          183.000000         3.767713202       294.091783378     -1268.546517455     -1264.606396570        13.252029546
       184          184.000000         3.776868819       294.806432219     -1268.499866177     -1264.550310163        12.630545661
       185          185.000000         3.812040180       297.551760125     -1268.543497859     -1264.558505767        12.724514876
       186          186.000000         3.803945265       296.919905240     -1268.535920197     -1264.558768385        12.617089447
       187          187.000000         3.767274059       294.057505728     -1268.438909969     -1264.498188274        12.613713834
       188          188.000000         3.830976224       299.029827768     -1268.509860372     -1264.505210571        12.616798587
       189          189.000000         3.865877765       301.754094678     -1268.542990381     -1264.503216626        12.663028765
       190          190.000000         3.852963778       300.746083372     -1268.532949979     -1264.505867101        12.656219665
       191          191.000000         3.830313305       298.978083130     -1268.514438282     -1264.509785362        12.641959868
       192          192.000000         3.802967119       296.843555286     -1268.430380161     -1264.452860232        12.631713927
       193          193.000000         3.886388837       303.355102398     -1268.554140199     -1264.492992207        12.634315085
       194          194.000000         3.927167580       306.538118886     -1268.573381524     -1264.471240536        12.684792574
       195          195.000000         3.872633481       302.281417384     -1268.506522172     -1264.458690085        12.597900230
       196          196.000000         3.879658812       302.829785063     -1268.521646309     -1264.466560937        12.643681169
       197          197.000000         3.893783294       303.932282429     -1268.544217027     -1264.474774485        12.594401013
       198          198.000000         3.933929253       307.065906512     -1268.563594217     -1264.453763977        12.076544520
       199          199.000000         3.944065428       307.857093553     -1268.563015195     -1264.442791408        12.000493534
       200          200.000000         3.870390580       302.106345990     -1268.404907911     -1264.358089262        12.018684320
       201          201.000000         3.896923511       304.177394564     -1268.437469402     -1264.363845737        12.722917315
       202          202.000000         3.943542759       307.816296145     -1268.503736952     -1264.383212070        11.978586629
       203          203.000000         3.928642130       306.653216019     -1268.480418953     -1264.374496987        12.016283702
       204          204.000000         3.905278857       304.829577595     -1268.464416610     -1264.381548995        12.007952642
       205          205.000000         3.838186698       299.592646942     -1268.382963137     -1264.366875562        12.006727256
       206          206.000000         3.844653030       300.097381476     -1268.349657491     -1264.326797702        11.990275655
       207          207.000000         3.881769517       302.994537727     -1268.399495583     -1264.339215216        12.077758413
       208          208.000000         3.828394195       298.828285494     -1268.328034180     -1264.320824784        12.029191185
       209          209.000000         3.823263644       298.427816326     -1268.352329110     -1264.349954476        12.042130869
       210          210.000000         3.836669449       299.474216852     -1268.365607532     -1264.349538894        11.983492829
       211          211.000000         3.854149144       300.838608040     -1268.315147942     -1264.281315763        12.019116931
       212          212.000000         3.877197890       302.637695884     -1268.364950885     -1264.307786548        12.010854077
       213          213.000000         3.807903919       297.228901031     -1268.300926097     -1264.312773761        11.994270951
       214          214.000000         3.787386210       295.627375310     -1268.287171824     -1264.319268423        12.709636353
       215          215.000000         3.814449191       297.739797329     -1268.323107714     -1264.327886149        12.648870688
       216          216.000000         3.798213539       296.472510916     -1268.283265613     -1264.304034666        11.987907849
       217          217.000000         3.821419662       298.283882878     -1268.291445424     -1264.288774650        11.995388992
       218          218.000000         3.819490692       298.133315647     -1268.286043130     -1264.285075370        12.002907366
       219          219.000000         3.827859917       298.786581971     -1268.322446472     -1264.312891140        12.012560055
       220          220.000000         3.879024729       302.780291168     -1268.386610861     -1264.325675924        11.972764686
       221          221.000000         3.843848222       300.034561615     -1268.333790025     -1264.307814559        12.014191911
       222          222.000000         3.829512169       298.915549813     -1268.319302414     -1264.307449915        11.985217310
       223          223.000000         3.849909218       300.507657363     -1268.354501776     -1264.322043990        12.029041704
       224          224.000000         3.846593667       300.248859462     -1268.352904733     -1264.323556132        12.006153692
       225          225.000000         3.879153354       302.790331078     -1268.385714638     -1264.323600682        12.031295534
       226          226.000000         3.843137989       299.979123778     -1268.342179050     -1264.315872450        11.988309901
       227          227.000000         3.817344946       297.965827747     -1268.349404844     -1264.348687735        12.612263132