    2698
 i =     4140, time =     4140.000, E =     -1268.5825536927
  C        12.2919939059       13.8532815761        9.8902045165
  O        12.1124493247       15.0822309527        9.6639856924
  O        11.8098023461       12.7195867247        9.1626812610
  N        13.0692141526       13.4565226870       10.8862737260
  H        11.1327944499       13.0422959268        8.5021317483
  H        13.2713133692       14.2200015954       11.5631745243
  H        13.4687841566       12.5080787885       10.7813554408
  O        13.2337739775       10.8736615954       10.4264260507
  H        12.4922309717       11.1925688028        9.8455116747
  H        13.2970644179        9.8847491548       10.4951819050
  O        29.9020137935       11.4731914238        3.0661768572
  H        29.4570578968       10.7869923454        3.6564865372
  H        29.1029421609       11.8178976720        2.6499343526
  O         3.2415978798       18.1878018890        2.5077656378
  H         2.9129981844       19.0624881796        2.8831020845
  H         3.8002355780       18.5060927873        1.7995276723
  O         0.1728500959        7.7544617430      -12.6073583264
  H        -0.6380186177        7.1999886118      -12.4899430684
  H        -0.2379305805        8.4099123659      -13.1924745728
  O        26.0792661861       23.1884977016       -9.8045603504
  H        25.6299016379       23.9865130396       -9.4590332647
  H        26.1316218684       22.6285719328       -9.0426026494
  O        23.4763042368        7.9583785248        9.7163319660
  H        23.1253717843        8.6153810906       10.3221812958
  H        22.9451054688        8.0727803421        8.9093834046
  O        18.2313698293       -1.8426898731        7.6720290289
  H        18.4857797796       -2.0677506381        6.7525826051
  H        18.5879894073       -0.9305984513        7.6865524225
  O        -0.6901401472       20.1744517683       -7.2539365996
  H        -1.2716762890       20.3706381282       -8.0016738489
  H        -0.7424559905       21.0220489008       -6.7227157865
  O        -0.0027230029        8.9355105480       -0.7923220424
  H        -0.8140952439        8.6693288319       -1.2820083250
  H        -0.0967520226        9.9187622758       -0.7243813820
  O        28.9781297909        1.2787983581       -3.2933722595
  H        28.0322260297        1.4903541274       -3.5267832809
  H        29.4301408020        1.5552921148       -4.1047732957
  O        20.4896852148       26.5824788947       -2.2586522782
  H        19.7857656935       27.0539817844       -1.8264492214
  H        20.1446136303       25.7204006691       -2.4540807694
  O         0.2929697846        9.9583904715        3.0222327765
  H        -0.5686097200       10.4464699789        3.1088876647
  H         0.3801899705        9.5626225651        3.9118019249
  O         5.6469066562       13.7786385413      -13.7177619993
  H         5.4347068517       14.6205269680      -13.2900316410
  H         4.8824840204       13.6749533201      -14.4003881628
  O        25.8168250740        4.0283110789       -1.7820720806
  H        26.5943346970        4.4262862859       -1.2918455701
  H        25.2026264408        4.7188159755       -1.5904792236
  O         2.1569577762        2.8636986860       -9.4115010824
  H         2.2308002339        2.5355338848      -10.3215711372
  H         3.0712643476        2.7513347017       -9.1301419231
  O        23.0595220621        2.1133195688       -2.9891862643
  H        23.1645367785        2.5350324591       -3.8752609440
  H        22.9073927961        2.9305818272       -2.4492015665
  O        12.2626293444        0.2876024950      -10.6071833353
  H        11.7595211398        0.5691007391       -9.8273402807
  H        11.8870213271        0.9183278260      -11.2854083087
  O        -4.6942660688       20.9830896708        0.2350247346
  H        -4.7081824346       20.1236237150        0.7396435132
  H        -5.2737100533       21.4668608757        0.9166772154
  O        28.7406751873       -3.3875792080       -6.9659622338
  H        29.5242273017       -3.8704955920       -6.6003242411
  H        29.0352284827       -2.4453975885       -6.8553217300
  O        25.1313755542       26.6969939958       -5.7307618823
  H        24.2361010361       27.0602860357       -5.6194577438
  H        25.3871636297       26.3366379620       -4.8767186251
  O        14.7748414761       11.9687070314      -10.5451133341
  H        14.1975632116       12.6960112620      -10.8410624456
  H        15.5633024688       12.5310340443      -10.3633634736
  O         9.5831399830       12.3820548771      -13.7792558304
  H         8.6202284491       12.2757487238      -14.0478542361
  H         9.5703877331       13.3674109043      -13.6519129916
  O        15.9725447357       24.6503585502      -13.0962221122
  H        16.0662292192       24.2955447559      -12.1807320967
  H        15.5767321002       23.8722360173      -13.5668887644
  O        20.6717090272        2.7725769860       -5.6528704882
  H        21.6098800666        3.0335082836       -5.5297989257
  H        20.7723255380        1.7676702497       -5.4943138636
  O        25.7591888841       -1.0168026867       -4.3378203148
  H        26.2176371513       -0.1791431447       -4.2646466952
  H        26.3944617338       -1.6267153701       -4.7432465345
  O        -2.5716756832        4.2168351725      -11.6774880725
  H        -3.4881801971        3.8877323654      -11.8491632152
  H        -2.3359843345        3.5244158898      -11.0109892873
  O        20.6903439428       11.6841566136       -0.7086007461
  H        21.6087371592       11.4203442484       -0.8922628658
  H        20.8522213082       12.5729853871       -0.3945877417
  O        15.5353242111        7.1665147668        1.9692703285
  H        15.9046946486        8.0580892710        1.6396223211
  H        14.5832073294        7.3571621273        1.8128200335
  O         0.0581916347       25.3043005760       -4.3214767457
  H         0.7501922171       24.6014628374       -4.2498044450
  H         0.4033165252       25.9272812175       -3.6576856330
  O        27.6872009580        5.8935684432      -14.2423589532
  H        26.8833969008        6.4414185485      -14.3084523257
  H        27.8335621525        5.8086864210      -13.3372710448
  O        16.3444700936       -2.3179517195       -4.9054385399
  H        16.4099148823       -1.8298372676       -5.7953907059
  H        16.1070105015       -1.5697743539       -4.3313736519
  O        23.3218559604       -1.8270381849        0.1054765909
  H        23.8573683348       -1.3015052100       -0.4469999534
  H        23.1160698516       -2.5672668456       -0.5010867007
  O        -0.7754933498        9.4374823893      -14.3513694440
  H        -1.0791803141        8.7847734118      -14.9835164810
  H        -0.1614442392        9.9419174598      -14.9086939391
  O        29.1815725258       -0.0807638512        9.5789866124
  H        30.0462571770        0.3993294849        9.7690067815
  H        28.6780430081       32.1768292249       10.3725506346
  O         0.4137922190       -4.1784395835        1.0767447806
  H        -0.3979016464       -4.4226539564        0.6210719780
  H         0.6554441228       -5.0036206871        1.5014488956
  O         2.9344936291        3.7583563214       -1.0947551692
  H         3.4216184754        4.3637969276       -1.6957346130
  H         2.3954663814        4.3995574675       -0.6027270087
  O         7.6456695645       -4.1796172571      -13.4814848905
  H         7.4110790443       -4.8761872484      -14.1246189468
  H         8.5301038874       -4.4435562959      -13.2130707126
  O        25.1964128431       16.7791686499        6.1172603689
  H        24.6278194828       17.1356367308        5.3741731770
  H        24.8912582486       17.4198543447        6.7981755462
  O        25.5607999540        7.5899231558       -1.3538122421
  H        25.5125448272        7.9275327412       -2.2692004099
  H        26.5026863071        7.7756506085       -1.1292237034
  O        26.3450853367        1.9163060832       -3.4385735185
  H        25.7392396683        2.2356738023       -4.0740473661
  H        26.0666469194        2.3307926284       -2.6064069422
  O        -0.7721941806        4.5418702076      -13.7210354635
  H        -1.2775455856        4.3473902038      -12.9114930749
  H        -1.1757400361        5.3416209147      -14.0270323873
  O         9.7077375359        3.1976701966        2.9565224923
  H        10.2878737213        3.9118399374        3.1042091584
  H         8.8228131093        3.6521466130        2.8434649828
  O        14.9341835813        0.4628476756       -4.2338827230
  H        15.1038220971        1.3694322085       -3.9064532324
  H        14.6938200016        0.7021024228       -5.1755183423
  O         3.9340076452        0.5587176048      -14.1426000094
  H         3.0256241600        0.2938354137      -14.3095973540
  H         3.8764364889        1.3505215198      -14.7692896672
  O        29.9333950440       -0.8415953648       -1.8405289220
  H        29.7587371055       -0.0117526052       -2.3682485615
  H        29.5519321019       -1.4895423454       -2.4949652044
  O        13.2723553738       11.9168190031        0.7400450311
  H        12.5440254468       11.2970602101        0.5165176826
  H        13.4183792233       11.6584776416        1.7020291700
  O         3.3350094286        8.9128623745      -12.5599953484
  H         3.8336141352        8.9488793038      -11.6936136454
  H         3.7191636228        9.7094676174      -12.9817767430
  O        11.4240603868       12.0835782179      -10.2176196735
  H        11.5370722179       11.5624971208      -11.0367209211
  H        10.8904281107       12.8297683391      -10.5869199437
  O        28.7465385661       -0.4285097206        6.8588039619
  H        28.7442913111       -0.3935518599        7.8638212775
  H        28.0565378448        0.2570016495        6.7309586743
  O        21.4069942462       12.0855713597        8.4224057313
  H        20.7734312341       11.6904406331        7.7522492054
  H        21.8817213729       12.7946197600        7.8906336025
  O         4.8675869486       -0.9428249857      -10.7675636402
  H         5.2204145534       -1.8596841854      -10.9726783808
  H         5.3453110165       -0.4657605840      -11.5187880350
  O        17.0018472593       14.6437851770       -1.8912553066
  H        16.7204179361       13.9419633494       -1.2485060087
  H        16.0886066032       14.8994874357       -2.1539747766
  O         3.7589385400       10.1470237300        6.9900517218
  H         3.3693173176       10.6919928637        6.2514545545
  H         3.9050429538        9.3571591648        6.5677493297
  O         7.2592311991       18.4968254998        3.3550994398
  H         6.8666253198       18.9172382261        2.6088777546
  H         6.8350520661       19.0511677969        4.1035856569
  O         4.5362637354       25.9189240920       -9.3073783279
  H         4.0050420832       26.7223516157       -9.4336211389
  H         5.4827143085       26.2693752050       -9.2356335493
  O         7.2652769848       -1.4282386569      -14.3352745730
  H         7.3762260867       -2.2587726308      -13.8808409424
  H         8.1845235117       -1.1417616916      -14.4329128514
  O        12.8026319586       19.0486242656        4.2852824042
  H        13.3565750220       18.2930158257        4.4374966770
  H        11.9504543425       18.6675720992        3.9113594178
  O         3.3431308026       -5.0555703024        3.5799939360
  H         3.3007090211       -4.6902784291        4.5120931353
  H         3.7354907113       -4.2759456006        3.1130148939
  O        13.2713581040       -4.3506857965      -15.5193038807
  H        13.5003839771       -4.0754062703      -14.5879340839
  H        14.0563364692       -4.9394330311      -15.7199180266
  O        22.9873322238       22.3222577840      -11.6897307546
  H        23.1076139570       22.9061274666      -12.4729173723
  H        23.1257688643       23.0002252877      -11.0086940146
  O         2.9931262106       -4.4557347569        6.4701167137
  H         2.5555673544       28.1326448861        5.8507527031
  H         3.3627533049       -3.8006754768        7.1016316990
  O         6.7387450511       14.9292517595       -4.9922691883
  H         7.0050619884       15.3726086184       -4.1333686578
  H         6.7195396669       15.7201736930       -5.5535312202
  O        22.9710725779       18.0525030542        4.8685405059
  H        22.9872137018       18.8802585963        5.4275917276
  H        22.8085941554       18.4721295778        4.0055231854
  O         6.9304120135        5.7800863438        0.5791439448
  H         6.0581816048        6.3217415854        0.5491384881
  H         6.6753216361        5.1659832673       -0.2351946569
  O        26.8759877587        5.3545543642        9.1320750791
  H        27.1945164771        4.3977471772        8.9589289964
  H        27.2431302249        5.3791757336       10.1121056927
  O         5.6620338755       -3.3337478649       -5.8530486495
  H         5.1342991277       -2.6934200846       -6.3385720227
  H         6.1636000604       -2.8017681637       -5.2491221762
  O        17.2444194018       20.1319879455        2.5898459086
  H        16.3728677996       20.6339151037        2.5674592909
  H        17.7505375111       20.8629485643        3.0833023103
  O        24.9619455519       26.6507044283       -0.8931226843
  H        24.1841643642       27.2749678411       -1.0529324584
  H        25.3921184613       27.1073557524       -0.1614841706
  O        19.0047273630       10.6570684171       -4.6030210593
  H        18.7438819719       11.2615212183       -3.8506732570
  H        19.6016366277       11.2767722060       -5.1088483367
  O        10.6776396666       -1.1301893730       10.1917975101
  H        10.4621006004       -1.9941898605        9.8850768283
  H        10.1985366966       -0.9839878080       11.0088073843
  O         4.4154940793       24.8818653982        8.4641273545
  H         4.8026067763       24.9815224611        7.6264241073
  H         5.1256679631       24.9998290092        9.1076515294
  O         0.3869199043       -1.5298657467       -2.2277075281
  H        -0.5713586680       -1.3939023712       -2.0888111840
  H         0.6466386909       -0.5950058095       -2.4828650088
  O         4.1015104076        9.2226496941      -16.8142285308
  H         4.1987779603        9.3021220876      -17.7384476124
  H         4.6355309366        8.4217583746      -16.6284993279
  O         3.0658451702       -3.8476858295       -9.3185710115
  H         2.7829403030       -3.1887533719      -10.0111817497
  H         2.8650917454       -3.3218960814       -8.4764218776
  O        29.2873363087       14.3917669077      -14.3096609972
  H        28.4172257441       14.6796246769      -13.9249169083
  H        29.8794030373       15.1105430598      -14.0918790742
  O        13.2148561311       12.7334664549        5.8814519254
  H        13.2721347323       12.1590857053        5.1049404821
  H        13.6641846001       12.2011720070        6.5600733063
  O        12.1710273572        8.3687946767       -2.0007299805
  H        11.5032418188        7.7396583303       -2.3090612550
  H        11.9138719019        9.1272110422       -2.5412465476
  O         4.1823345914       12.7268795809      -16.3115127762
  H         4.4840855427       12.8348816402      -17.2265329348
  H         4.0369676105       13.6869521353      -16.1326016242
  O        22.5913921165       -3.5721646156       -5.7879746211
  H        21.9485480330       -4.2828301871       -5.4961406905
  H        22.2966600238       -2.8695274860       -5.1596669433
  O        24.4903986322        5.4990149260      -12.4520872933
  H        23.6222786773        5.9649106742      -12.6413411620
  H        24.3222106908        5.3678572667      -11.4650336793
  O         9.1084997018       18.6079431796       -0.9239125026
  H         9.7055183081       19.3846339953       -0.7580027814
  H         8.9784772151       18.3501113514       -0.0034896430
  O        23.4985471873       -2.4627840993       -8.0882365485
  H        22.9869711670       -2.9357389303       -8.7887335983
  H        23.0318375359       -2.8329447404       -7.2950041386
  O        12.3112507008       16.1326802589       -7.2478914267
  H        12.8538210636       16.6516009893       -6.6404137057
  H        11.4139234423       16.3301500486       -6.8672879492
  O        17.1139033220       12.3864925999        8.1724571534
  H        16.1480879353       11.9735923602        8.0381443894
  H        17.6943383711       11.7318690676        7.7383219456
  O         8.4749635730       12.5987925815       10.8403521660
  H         7.7722124881       12.1328610046       10.3150382426
  H         8.9863522325       11.8721707696       11.1337718738
  O         9.8218872588        1.5645046136        5.1304167904
  H         9.9422989721        2.2309771546        4.4056459343
  H         8.8410004485        1.7377966239        5.2926946990
  O        19.9077813191       11.6023158645        6.2878738502
  H        19.3084732767       10.8320457061        6.1964700771
  H        20.5316737096       11.6553097647        5.4727185274
  O        21.7624839886       19.1649469043        9.2590634286
  H        21.0128829896       19.8053370089        9.2504584951
  H        21.3359219857       18.4854844154        9.8588864995
  O         7.0133008704        6.5415472262       -3.0860957032
  H         6.4025391182        7.2828969236       -3.3233276721
  H         7.3471798804        6.7833228334       -2.2312778883
  O        -1.1084310542       -2.1498447059        6.4269901351
  H        -1.8778555349       -1.6255070301        6.7232965738
  H        -1.1354739992       -2.9189899552        7.0505471648
  O         3.1966217464       -0.0921750927        3.4758395105
  H         2.5080883992       -0.7503435002        3.6277372902
  H         2.5965214519        0.6699187451        3.1984429415
  O         5.0850880415       -3.3880402475       -3.1595165845
  H         5.9301476874       -3.0267422148       -3.4821646688
  H         4.5984940068       -2.5873685813       -2.8974710913
  O        19.6037850014       17.0660426920        7.9748665838
  H        20.0207681468       16.9476780451        7.0471062842
  H        19.0824140695       16.3153081840        8.0358999825
  O        17.3573124206       21.6381921032      -12.8402405165
  H        17.0555492604       20.8754947866      -12.3048176629
  H        16.4882329297       21.9875991054      -13.1543310105
  O         4.9085462875        1.5108347792       -6.0270409502
  H         4.9807342492        2.4273776653       -6.3402689265
  H         4.8611273903        1.0502167749       -6.9040386121
  O        17.1014843542       27.1286072794       -5.6351580170
  H        17.5561578686       -4.4798323587       -6.4188384331
  H        16.6240480622       27.8843818195       -5.2620241182
  O         8.2427418719       24.0982889695       -1.5396266882
  H         7.6361410872       24.7700508050       -1.2100520649
  H         8.9198906534       24.1875487849       -0.8587896965
  O         7.0732071534        1.0456593873        8.6336733784
  H         6.1990514085        1.4954221872        8.6848301788
  H         7.1777392146        1.0390070198        7.6425132164
  O        21.0364914074       -1.9905846623       -2.1644035344
  H        20.5188869234       -1.1706962923       -2.3767591377
  H        20.5429501900       29.3466120744       -2.6883714189
  O         1.5151803195       12.5659596397        3.0715028910
  H         0.9041698049       11.7947513836        3.0107293414
  H         2.2155946634       12.2692570491        2.3987622672
  O         7.5087391462        4.3908526414       -4.8284237410
  H         7.3434840223        5.1965042971       -4.2455356596
  H         8.2372751665        4.7524546106       -5.4048514118
  O        15.2698594572        8.3721817057        6.5990371175
  H        15.8910069074        7.6362852099        6.8968674822
  H        14.6262244450        8.0220445644        6.0103024215
  O        15.3483254580        5.9397599431      -10.7189565762
  H        15.4921747686        6.1476901072       -9.7462900754
  H        15.8628190520        6.6948798386      -11.1115914502
  O         4.0325265495       15.7842974645      -11.4035375462
  H         4.0121756253       16.7704946800      -11.4845581088
  H         3.2261533025       15.5727750341      -11.9359113182
  O        19.3830594878        3.6391570219        1.0323484971
  H        19.2184981360        4.5856879309        1.1726225855
  H        20.2215678353        3.6816800424        0.5629916098
  O         6.8093548124        1.5329033345       -2.2287161960
  H         7.7413045131        1.1776389010       -2.0452340842
  H         6.4019819160        1.3492306842       -1.3431199579
  O        15.7300344870        1.4609221747        9.0865681444
  H        15.5777156949        0.9843923191        9.9331710612
  H        16.6571266785        1.1660340265        8.9408320816
  O         5.6559857668       19.4953719423        1.4530665908
  H         5.1558971240       20.2945653771        1.6508642408
  H         6.0142617223       19.6618650632        0.5803555510
  O         5.1420059289       20.4485068502        9.3735225892
  H         5.9717988971       20.8661424173        9.0598927785
  H         5.2265159833       20.6142418398       10.3244222573
  O        16.5114311430       -1.0278325791      -11.2715785234
  H        15.7364026445       -0.8034307778      -10.7012589905
  H        16.7348543337       -1.9178668038      -10.9309252482
  O         9.5615568264       30.0761963448       -2.7535221636
  H         9.8692855841       -1.7193543375       -3.6740823157
  H         9.4984989940       -1.0331376462       -2.3144129638
  O        -1.2309801488       19.4887933833      -10.8426608659
  H        -0.4404129285       19.9970259734      -10.6566123995
  H        -1.8999720529       19.9461787510      -10.2642923585
  O        -6.1173855633       -2.6520235090        4.4113613819
  H        -5.3691921029       -3.3314259239        4.3991440203
  H        -5.7774251886       -2.0485601520        3.6901193354
  O         5.9989866522        7.2886289456      -16.0163541682
  H         6.0964546688        6.4019512166      -16.3708659286
  H         6.7270809874        7.7770913727      -16.3651143858
  O        16.4351526593        0.9742393409       -0.9762451811
  H        15.6031804993        1.4557756365       -1.0406419419
  H        16.9335977252        1.4522655566       -1.6916450304
  O        13.6256533985        5.9727854375       -5.5140884835
  H        13.5130519561        6.8354363317       -6.0134556462
  H        14.5674053709        6.1363985263       -5.2068416139
  O         8.6343982744        6.7245315046       10.4117903290
  H         9.0337332243        5.8836552072       10.7501669946
  H         8.2451435220        6.2406993155        9.6671309776
  O        22.5605206347       -4.0580303197       -1.2963215916
  H        21.9480262901       27.2340023628       -1.5410453749
  H        21.9445545600       -3.2701035213       -1.4066512883
  O        -0.0066988806        3.7998494603       -3.1316013707
  H        -0.6555134801        4.2625502900       -3.7737466646
  H         0.7903976821        4.2460359385       -3.4377589006
  O        25.1819088310       22.7435302079       -6.7439303001
  H        24.2206122533       22.5842750506       -6.9159761440
  H        25.2221028144       23.7284541741       -6.7634211103
  O         0.8609171511       -4.9790101393       -2.2387606664
  H        -0.0337934748       -4.6634536492       -2.3536578912
  H         0.8013383427       -5.5464301243       -1.4774072514
  O         7.3389398138        4.4518764907        2.7413986532
  H         7.1978215242        4.8963869145        1.8515209065
  H         6.4318683030        4.1949688725        2.9756585677
  O        30.2502810162        4.7236508088        2.3409212861
  H        29.2971789527        4.7865227041        2.1869131776
  H        30.6038110064        5.5576287813        2.0774186767
  O        17.7060567059        9.9508493494        6.7763868798
  H        16.9075521960        9.4704588072        6.5081849822
  H        17.7795691789        9.4846913820        7.6077746029
  O         3.2343135555       13.0029831334       -1.7773361981
  H         2.6261768670       13.4699941677       -1.1045994242
  H         3.1890373486       13.7042739045       -2.4560269786
  O        10.2782175020       13.2506540056        6.5565972680
  H        11.1508299496       12.9235176494        6.2801623580
  H         9.7243282446       12.4065825294        6.6170981989
  O         7.7093378847       32.4951665091       -8.4351854190
  H         7.0079482320       32.6066579409       -9.1030103667
  H         7.6636937449       31.5282639749       -8.3188674520
  O        32.1121402550       24.5467835479      -11.9150776271
  H        31.8859550254       24.6658019544      -10.9726939523
  H         0.2226956232       25.4724253266      -12.2172555353
  O         0.1079319002       27.7199771583       -8.2466700003
  H        -0.2500715352       27.8093012082       -7.3679570710
  H         0.7088550172       27.0417023022       -8.1706350403
  O        -4.9979340892       -1.5601905932        2.2670685855
  H        -4.2296583416       -1.2747727021        1.8210910621
  H        -5.4746568410       -0.7396681481        2.3813968783
  O        13.2307109289       -2.2746978607       -7.3777148879
  H        13.1290244373       -1.4226542704       -7.7677700991
  H        14.1651961695       -2.4252963427       -7.6477347245
  O        10.1788711002       22.4491307275      -12.4656014620
  H         9.9302378057       23.0758350438      -11.7677544413
  H        10.9637185980       22.9005988172      -12.8272952920
  O        10.9369257327       10.3055484873        0.1391865242
  H        11.0447711085        9.7649128944       -0.6296213272
  H        10.1854498393       10.9140396284       -0.0513880336
  O        -2.2356920742       22.4885425220        7.7294912124
  H        -2.0157744984       22.8731725910        8.5892568289
  H        -2.6789441246       21.5936261470        8.0018917160
  O         4.4745936321       21.5367650620        3.4715002090
  H         5.1142221937       21.1144478862        4.0633870828
  H         4.0857883541       22.1976109339        3.9984366986
  O        20.9029456788       -2.4157306713      -12.2870609861
  H        20.8270093455       -1.4892243357      -12.5700019930
  H        20.1890911108       -2.8395816046      -12.7442809601
  O        -0.1612731681       16.1235941302       -7.4441272100
  H         0.8154310237       16.2441620702       -7.5697979403
  H        -0.2207244474       16.6742460721       -6.5959868367
  O        20.4174601658        6.5449255037       -5.8025915086
  H        21.1753739232        7.1172468458       -5.5271865612
  H        20.8089329425        6.0357606494       -6.5286216760
  O        16.2590501199       -0.5720604838      -13.8805137038
  H        16.3616960408       -0.5086590245      -12.8785180853
  H        15.9508216511        0.3252754169      -14.0742266031
  O        24.2768061993        0.3704931357       -7.9970629105
  H        24.2261251442        0.9482101916       -8.7576937080
  H        23.8566650558       -0.4340752880       -8.3585092451
  O        12.6223264436        3.5887304678       11.3602771479
  H        12.7805037246        3.1796835008       10.4017387898
  H        12.4155367136        2.8172012925       11.9374483936
  O        16.0753936434       20.6883680153       -8.4445807388
  H        17.0491907387       20.7693263847       -8.3653252804
  H        15.7362478236       21.3087846230       -7.7230417120
  O        13.5656460941       16.7323531209       -9.6600822056
  H        12.8985437547       16.5641972895       -8.9502499003
  H        14.0790705609       17.4181231053       -9.2228612790
  O        10.2094020600        7.6741452817        6.5868442618
  H         9.4085307086        7.2899523450        6.9381607446
  H        10.6228480594        6.7801743760        6.2682112283
  O        26.8077697203       14.6302213574        0.4602365083
  H        26.5515969108       15.4302661802        0.9049881976
  H        26.5716584127       14.9599423756       -0.4524397021
  O         5.7845991915       -3.3011786807      -11.6793738346
  H         6.5874986942       -3.6197065969      -12.1668035756
  H         5.2630102847       -4.1370831031      -11.7224380009
  O        -3.3793171229       17.4562862827        0.1071010951
  H        -2.7658519103       17.5732615414       -0.6330751543
  H        -2.8634466936       16.8600942512        0.6964803287
  O        10.3983512231        1.9064722553        0.3732257222
  H        10.3087156423        2.4987318136        1.1481521146
  H        10.6438469874        2.5083760808       -0.3229261108
  O         7.2559747135       11.0633225202       -6.8727403400
  H         6.8411147145       11.6270680595       -7.5427044836
  H         8.1961164964       11.0970157131       -7.1836502590
  O        16.8994049030       18.9607280107        8.1344335412
  H        16.6088092875       18.0031892594        8.4403179439
  H        17.7113710719       18.7323314148        7.6491136457
  O         8.7156415064       13.9647560931       -9.2358879584
  H         8.1557053462       13.9088645151      -10.0320277627
  H         9.2549118378       14.7767094631       -9.4417022533