#     Step Nr.          Time[fs]        Kin.[a.u.]          Temp[K]            Pot.[a.u.]     
         0            0.000000         3.843405441       300.000000000      -992.840262742    
         1            1.000000         4.209408362       328.568642508      -993.366379471    
         2            2.000000         3.919867341       305.968293008      -992.991597880    
         3            3.000000         3.729526923       291.111123733      -992.701443330    
         4            4.000000         4.287737571       334.682689845      -993.490659327    
         5            5.000000         3.806944953       297.154048198      -992.818901387    
         6            6.000000         3.843606591       300.015700924      -992.914420648    
         7            7.000000         4.011147259       313.093217961      -993.176414855    
         8            8.000000         3.663090096       285.925345524      -992.651338112    
         9            9.000000         4.156040165       324.402946445      -993.357754842    
        10           10.000000         3.829944201       298.949272431      -992.951465633    
        11           11.000000         3.513955178       274.284503547      -992.506514246    
        12           12.000000         4.026495168       314.291210944      -993.236974137    
        13           13.000000         3.681604085       287.370469335      -992.717936587    
        14           14.000000         3.844517758       300.086822737      -992.962365458    
        15           15.000000         3.905769856       304.867902863      -993.079975914    
        16           16.000000         3.475461000       271.279810546      -992.439623469    
        17           17.000000         4.075817964       318.141140150      -993.265569969    
        18           18.000000         3.895772796       304.087574607      -993.001658849    
        19           19.000000         3.604208437       281.329291832      -992.614740573    
        20           20.000000         3.985184899       311.066705829      -993.182408912    
        21           21.000000         3.637058349       283.893417303      -992.625741882    
        22           22.000000         3.984756273       311.033249028      -993.082541050    
        23           23.000000         4.089044506       319.173548193      -993.226128242    
        24           24.000000         3.550705144       277.153050744      -992.469499273    
        25           25.000000         4.057181835       316.686482630      -993.187354619    
        26           26.000000         3.927237069       306.543542883      -992.973158577    
        27           27.000000         3.773386849       294.534644345      -992.769112376    
        28           28.000000         4.062042931       317.065919210      -993.259987886    
        29           29.000000         3.551923776       277.248171996      -992.524886113    
        30           30.000000         3.922930649       306.207401935      -993.047588781    
        31           31.000000         4.104849421       320.407213083      -993.330300183    
        32           32.000000         3.575248245       279.068781539      -992.622977389    
        33           33.000000         3.942272025       307.717108070      -993.187054572    
        34           34.000000         3.733820020       291.446224726      -992.867091085    
        35           35.000000         3.723161587       290.614272444      -992.835637126    
        36           36.000000         4.092428548       319.437692189      -993.380460561    
        37           37.000000         3.487485214       272.218369953      -992.549850847    
        38           38.000000         3.760750545       293.548307783      -992.952819351    
        39           39.000000         3.982828216       310.882753090      -993.240602783    
        40           40.000000         3.606868344       281.536912925      -992.698017990    
        41           41.000000         3.962001181       309.257082663      -993.269697182    
        42           42.000000         3.605691432       281.445048180      -992.773927634    
        43           43.000000         3.621050815       282.643936746      -992.767502359    
        44           44.000000         4.116699106       321.332149442      -993.462049703    
        45           45.000000         3.575297786       279.072648468      -992.702942347    
        46           46.000000         3.767233851       294.054367281      -993.017261343    
        47           47.000000         3.878414887       302.732689475      -993.162434099    
        48           48.000000         3.615033946       282.174285375      -992.742746881    
        49           49.000000         4.098851770       319.939061819      -993.442378796    
        50           50.000000         3.671748835       286.601210088      -992.849848361    
        51           51.000000         3.588075488       280.070021974      -992.722273183    
        52           52.000000         4.097293884       319.817459756      -993.394757039    
        53           53.000000         3.694665491       288.389987529      -992.773318498    
        54           54.000000         3.923472464       306.249693738      -993.121183696    
        55           55.000000         3.876624990       302.592977662      -993.060788094    
        56           56.000000         3.577311105       279.229799677      -992.591154714    
        57           57.000000         4.166393337       325.211071333      -993.386332926    
        58           58.000000         3.797775898       296.438350544      -992.862937218    
        59           59.000000         3.636325565       283.836219220      -992.665594592    
        60           60.000000         3.990267181       311.463407273      -993.176343115    
        61           61.000000         3.643748114       284.415592054      -992.621657839    
        62           62.000000         4.008241729       312.866424626      -993.124521990    
        63           63.000000         3.885736613       303.304192515      -993.020636694    
        64           64.000000         3.437038259       268.280693641      -992.393473183    
        65           65.000000         3.993691831       311.730721029      -993.192502888    
        66           66.000000         3.753617414       292.991525724      -992.818704977    
        67           67.000000         3.679861363       287.234439778      -992.757435750    
        68           68.000000         3.889670527       303.611257231      -993.056935563    
        69           69.000000         3.434890552       268.113052663      -992.396386217    
        70           70.000000         3.917615299       305.792508162      -993.066476635    
        71           71.000000         3.923937032       306.285955929      -993.104981527    
        72           72.000000         3.457079813       269.845052723      -992.452728476    
        73           73.000000         3.865934505       301.758523608      -993.082206339    
        74           74.000000         3.618800873       282.468315815      -992.692500209    
        75           75.000000         3.742697236       292.139142751      -992.850072995    
        76           76.000000         3.993159663       311.689182174      -993.237136341    
        77           77.000000         3.417063494       266.721547831      -992.433112767    
        78           78.000000         3.821769697       298.311205132      -993.016604993    
        79           79.000000         3.904710731       304.785232074      -993.105960778    
        80           80.000000         3.596413480       280.720850418      -992.654037841    
        81           81.000000         3.953584424       308.600106158      -993.180254042    
        82           82.000000         3.574526380       279.012435783      -992.628913345    
        83           83.000000         3.755532579       293.141015383      -992.857806824    
        84           84.000000         4.118647959       321.484268678      -993.379913345    
        85           85.000000         3.564328742       278.216451279      -992.599365682    
        86           86.000000         3.857258422       301.081305160      -993.052746226    
        87           87.000000         3.851438191       300.627002484      -993.021120118    
        88           88.000000         3.659928820       285.678589640      -992.712911248    
        89           89.000000         4.080148978       318.479200811      -993.345115180    
        90           90.000000         3.589969134       280.217831951      -992.679279845    
        91           91.000000         3.678788553       287.150700758      -992.828848926    
        92           92.000000         4.064387294       317.248910288      -993.355702736    
        93           93.000000         3.623260254       282.816396239      -992.698600466    
        94           94.000000         3.884078816       303.174791849      -993.121752821    
        95           95.000000         3.722485635       290.561510507      -992.900314868    
        96           96.000000         3.541966441       276.470944488      -992.623570658    
        97           97.000000         4.070879690       317.755679314      -993.356142250    
        98           98.000000         3.612619937       281.985857998      -992.713643297    
        99           99.000000         3.621653959       282.691015613      -992.767516732    
       100          100.000000         3.905118561       304.817065517      -993.158252538    
       101          101.000000         3.559154299       277.812556051      -992.608459369    
       102          102.000000         3.953243131       308.573466254      -993.159083255    
       103          103.000000         3.722497747       290.562455882      -992.851118962    
       104          104.000000         3.450193718       269.307553219      -992.473189006    
       105          105.000000         3.982037614       310.821041994      -993.201685041    
       106          106.000000         3.631835280       283.485726546      -992.683907721    
       107          107.000000         3.680656980       287.296542306      -992.784891394    
       108          108.000000         3.827965443       298.794818910      -993.011670087    
       109          109.000000         3.446493416       269.018723286      -992.438773158    
       110          110.000000         3.931122744       306.846842259      -993.105922697    
       111          111.000000         3.751388103       292.817515086      -992.856857642    
       112          112.000000         3.433390237       267.995944425      -992.430293411    
       113          113.000000         3.861225103       301.390927522      -993.045087034    
       114          114.000000         3.542441772       276.508046788      -992.552855976    
       115          115.000000         3.703842576       289.106312055      -992.778843294    
       116          116.000000         3.816487906       297.898930862      -992.954405405    
       117          117.000000         3.361950988       262.419698324      -992.303999255    
       118          118.000000         3.866866158       301.831244445      -992.995095552    
       119          119.000000         3.782422679       295.239943031      -992.842521060    
       120          120.000000         3.536744713       276.063358443      -992.501545588    
       121          121.000000         3.874243299       302.407072988      -993.016391292    
       122          122.000000         3.517499089       274.561126247      -992.479830721    
       123          123.000000         3.802021849       296.769771483      -992.863555537    
       124          124.000000         3.975954957       310.346255475      -993.126140592    
       125          125.000000         3.463422916       270.340168531      -992.415365913    
       126          126.000000         3.855804377       300.967808525      -992.992571503    
       127          127.000000         3.785153294       295.453083314      -992.862878445    
       128          128.000000         3.672745935       286.679039503      -992.683403705    
       129          129.000000         3.976434636       310.383697256      -993.160413512    
       130          130.000000         3.469902534       270.845940160      -992.462195297    
       131          131.000000         3.710793058       289.648837283      -992.816878272    
       132          132.000000         3.953431373       308.588159656      -993.143410526    
       133          133.000000         3.531596292       275.661494377      -992.549425857    
       134          134.000000         3.840565098       299.778294753      -993.032522285    
       135          135.000000         3.635080489       283.739033896      -992.739138379    
       136          136.000000         3.594562673       280.576384267      -992.652845309    
       137          137.000000         4.008237957       312.866130147      -993.257938531    
       138          138.000000         3.510904834       274.046406589      -992.561616912    
       139          139.000000         3.660946864       285.758053844      -992.789427769    
       140          140.000000         3.867796235       301.903842394      -993.062675741    
       141          141.000000         3.586182413       279.922256535      -992.627233706    
       142          142.000000         3.958824018       309.009086721      -993.192062712    
       143          143.000000         3.666965587       286.227849964      -992.780891394    
       144          144.000000         3.584753189       279.810697375      -992.647344948    
       145          145.000000         4.048269366       315.990812884      -993.275183720    
       146          146.000000         3.647119513       284.678749236      -992.687030705    
       147          147.000000         3.784506798       295.402620613      -992.911564513    
       148          148.000000         3.857675797       301.113883693      -993.014313386    
       149          149.000000         3.591010665       280.299129507      -992.594572037    
       150          150.000000         4.049833546       316.112906191      -993.247168747    
       151          151.000000         3.743634484       292.212300336      -992.822184799    
       152          152.000000         3.584287958       279.774383339      -992.612854460    
       153          153.000000         3.977939642       310.501171642      -993.166514326    
       154          154.000000         3.663309914       285.942503579      -992.688535170    
       155          155.000000         3.881208879       302.950776722      -993.016543064    
       156          156.000000         3.865776123       301.746160963      -993.019167893    
       157          157.000000         3.522851974       274.978949836      -992.519617291    
       158          158.000000         4.014157243       313.328164641      -993.203505211    
       159          159.000000         3.810330148       297.418282297      -992.897608616    
       160          160.000000         3.668824138       286.372920591      -992.721806258    
       161          161.000000         3.931374028       306.866456434      -993.125124095    
       162          162.000000         3.596448881       280.723613703      -992.616791970    
       163          163.000000         3.929092177       306.688344782      -993.064442248    
       164          164.000000         3.947055210       308.090463245      -993.093402143    
       165          165.000000         3.548983658       277.018678807      -992.546093028    
       166          166.000000         3.943307994       307.797971394      -993.118345625    
       167          167.000000         3.764395622       293.832827124      -992.840328435    
       168          168.000000         3.731033930       291.228754283      -992.789211064    
       169          169.000000         3.961015625       309.180154313      -993.131557208    
       170          170.000000         3.553351936       277.359648116      -992.555091157    
       171          171.000000         3.883229704       303.108513795      -993.017919825    
       172          172.000000         3.970280859       309.903359385      -993.116587996    
       173          173.000000         3.624092562       282.881362693      -992.634402037    
       174          174.000000         3.938228443       307.401483085      -993.119168420    
       175          175.000000         3.717398837       290.164456552      -992.774312776    
       176          176.000000         3.791317188       295.934210873      -992.828552974    
       177          177.000000         4.082776749       318.684313541      -993.224298399    
       178          178.000000         3.650361287       284.931788456      -992.600996430    
       179          179.000000         3.925264138       306.389544218      -992.997679483    
       180          180.000000         4.009992458       313.003079072      -993.083717924    
       181          181.000000         3.770386230       294.300428686      -992.720385886    
       182          182.000000         4.068962672       317.606045026      -993.170694185    
       183          183.000000         3.737518828       291.734938094      -992.711101352    
       184          184.000000         3.792648336       296.038114674      -992.769430018    
       185          185.000000         4.139442894       323.107433542      -993.245566873    
       186          186.000000         3.752948542       292.939316364      -992.708332925    
       187          187.000000         3.931976427       306.913477134      -993.001340521    
       188          188.000000         3.897972645       304.259285479      -992.971576801    
       189          189.000000         3.691823223       288.168132078      -992.678677979    
       190          190.000000         4.065514041       317.336859396      -993.225669334    
       191          191.000000         3.740226935       291.946321474      -992.766121367    
       192          192.000000         3.735308386       291.562400326      -992.754429977    
       193          193.000000         4.036623829       315.081811454      -993.163100073    
       194          194.000000         3.748388008       292.583340328      -992.732109965    
       195          195.000000         4.000023647       312.224955798      -993.102178080    
       196          196.000000         3.899558314       304.383056112      -992.966313386    
       197          197.000000         3.665997038       286.152249102      -992.602664427    
       198          198.000000         4.065370177       317.325630004      -993.164886254    
       199          199.000000         3.799127579       296.543857005      -992.783676291    
       200          200.000000         3.791815485       295.973105857      -992.786375163    
       201          201.000000         3.998786008       312.128350947      -993.086074902    
       202          202.000000         3.688346797       287.896776947      -992.608032690    
       203          203.000000         3.974426058       310.226916092      -993.009863402    
       204          204.000000         3.880964282       302.931684519      -992.910122921    
       205          205.000000         3.629940831       283.337853903      -992.525032949    
       206          206.000000         4.005071239       312.618949497      -993.062748894    
       207          207.000000         3.778835349       294.959931268      -992.711824350    
       208          208.000000         3.829327164       298.901109118      -992.785255670    
       209          209.000000         3.977486739       310.465819915      -993.001890465    
       210          210.000000         3.625452209       282.987490987      -992.489816424    
       211          211.000000         3.942755778       307.754867735      -992.924316208    
       212          212.000000         3.884046225       303.172247930      -992.827350935    
       213          213.000000         3.650299239       284.926945238      -992.512527964    
       214          214.000000         3.975803155       310.334406464      -992.977130384    
       215          215.000000         3.755674713       293.152109746      -992.605659293    
       216          216.000000         3.864428415       301.640964529      -992.764050904    
       217          217.000000         4.014331086       313.341734082      -992.990685764    
       218          218.000000         3.627700421       283.162976916      -992.461517655    
       219          219.000000         3.900161769       304.430159265      -992.860524892    
       220          220.000000         3.863080443       301.535747560      -992.795799025    
       221          221.000000         3.698232436       288.668408168      -992.549404884    
       222          222.000000         3.990932959       311.515375111      -992.978970708    
       223          223.000000         3.711078250       289.671098178      -992.564172137    
       224          224.000000         3.842727616       299.947091793      -992.738658891    
       225          225.000000         4.026761868       314.312028456      -993.003496807    
       226          226.000000         3.676735296       286.990432230      -992.496572976    
       227          227.000000         3.916086772       305.673197791      -992.890732940    
       228          228.000000         3.841727336       299.869014155      -992.773417899    
       229          229.000000         3.727507222       290.953474365      -992.603313151    
       230          230.000000         4.024309667       314.120619977      -993.030063971    
       231          231.000000         3.705522151       289.237412597      -992.565587367    
       232          232.000000         3.793004450       296.065911428      -992.692520080    
       233          233.000000         3.972097750       310.045178207      -992.932211534    
       234          234.000000         3.688972542       287.945619929      -992.503977561    
       235          235.000000         3.949762439       308.301778133      -992.894801019    
       236          236.000000         3.845330750       300.150281432      -992.732904037    
       237          237.000000         3.749751946       292.689803591      -992.590241447    
       238          238.000000         4.073336756       317.947467539      -993.045374787    
       239          239.000000         3.761688389       293.621511915      -992.595990198    
       240          240.000000         3.816025375       297.862827596      -992.691882480    
       241          241.000000         3.937668086       307.357744049      -992.884890634    
       242          242.000000         3.692542753       288.224295537      -992.509582957    
       243          243.000000         3.982403440       310.849596823      -992.918513180    
       244          244.000000         3.845780209       300.185364316      -992.712522210    
       245          245.000000         3.723384244       290.631652118      -992.537722637    
       246          246.000000         4.039042672       315.270616147      -992.979617133    
       247          247.000000         3.782347759       295.234095127      -992.621882609    
       248          248.000000         3.851421408       300.625692519      -992.738755645    
       249          249.000000         3.913649636       305.482965214      -992.843800765    
       250          250.000000         3.659035619       285.608870136      -992.474844268    
       251          251.000000         3.994051004       311.758756554      -992.932235814    
       252          252.000000         3.905605241       304.855053734      -992.791883590    
       253          253.000000         3.794630991       296.192872347      -992.637044295    
       254          254.000000         4.054553434       316.481320731      -993.015463364    
       255          255.000000         3.815461012       297.818775844      -992.668017690    
       256          256.000000         3.971421042       309.992357273      -992.876716181    
       257          257.000000         4.046387394       315.843914112      -992.973916246    
       258          258.000000         3.771352124       294.375822260      -992.572538478    
       259          259.000000         4.061510725       317.024377501      -992.984382763    
       260          260.000000         3.966657565       309.620540306      -992.833306128    
       261          261.000000         3.878430127       302.733879046      -992.705987592    
       262          262.000000         4.086951234       319.010156231      -993.019850581    
       263          263.000000         3.798236189       296.474278885      -992.607461259    
       264          264.000000         3.952873490       308.544613647      -992.824365688    
       265          265.000000         4.052089300       316.288980843      -992.964318403    
       266          266.000000         3.797301274       296.401303385      -992.603040504    
       267          267.000000         4.049077365       316.053881889      -992.965155289    
       268          268.000000         3.924732087       306.348014526      -992.768673549    
       269          269.000000         3.865715708       301.741445183      -992.670610020    
       270          270.000000         4.068372055       317.559943923      -992.973014797    
       271          271.000000         3.770150591       294.282035727      -992.553801728    
       272          272.000000         3.914210671       305.526757269      -992.760740343    
       273          273.000000         4.005384418       312.643394970      -992.882189207    
       274          274.000000         3.797432656       296.411558509      -992.576327158    
       275          275.000000         4.036786700       315.094524507      -992.937687119    
       276          276.000000         3.869157447       302.010092814      -992.705575734    
       277          277.000000         3.818589648       298.062983949      -992.618260785    
       278          278.000000         4.044099132       315.665302095      -992.939282172    
       279          279.000000         3.758479396       293.371031487      -992.559726063    
       280          280.000000         3.865410856       301.717649739      -992.753237167    
       281          281.000000         3.913185201       305.446713401      -992.823764179    
       282          282.000000         3.732618491       291.352438463      -992.544956675    
       283          283.000000         3.992395787       311.629557265      -992.919384978    
       284          284.000000         3.819557855       298.138558070      -992.678409711    
       285          285.000000         3.764874961       293.870242313      -992.606934054    
       286          286.000000         3.968973499       309.801312334      -992.897274275    
       287          287.000000         3.730151554       291.159879795      -992.553344998    
       288          288.000000         3.872833939       302.297064256      -992.768205687    
       289          289.000000         3.883382210       303.120417774      -992.778568203    
       290          290.000000         3.694841390       288.403717483      -992.510342767    
       291          291.000000         3.961427632       309.212313863      -992.871037054    
       292          292.000000         3.813249912       297.646186717      -992.647442254    
       293          293.000000         3.774680170       294.635595540      -992.581265240    
       294          294.000000         3.952679887       308.529501835      -992.839743686    
       295          295.000000         3.728919160       291.063684300      -992.517257767    
       296          296.000000         3.904968180       304.805327442      -992.762561310    
       297          297.000000         3.913308047       305.456302259      -992.774841527    
       298          298.000000         3.728122486       291.001499283      -992.511778130    
       299          299.000000         3.975167348       310.284778070      -992.861331338    
       300          300.000000         3.826186242       298.655942024      -992.649337478    
       301          301.000000         3.808770752       297.296562357      -992.613975864    
       302          302.000000         3.958375256       308.974058243      -992.834037008    
       303          303.000000         3.721362261       290.473824665      -992.498776304    
       304          304.000000         3.886247971       303.344106970      -992.736345636    
       305          305.000000         3.900527985       304.458744538      -992.753893220    
       306          306.000000         3.744463676       292.277023584      -992.523199962    
       307          307.000000         3.975543822       310.314164058      -992.857972965    
       308          308.000000         3.820980713       298.249620423      -992.627500769    
       309          309.000000         3.814998807       297.782698067      -992.622395243    
       310          310.000000         3.954684296       308.685957484      -992.836287898    
       311          311.000000         3.719984277       290.366265046      -992.493726921    
       312          312.000000         3.891995406       303.792727504      -992.739510805    
       313          313.000000         3.917259516       305.764737201      -992.773999190    