#     Step Nr.          Time[fs]        Kin.[a.u.]          Temp[K]            Pot.[a.u.]        Cons Qty[a.u.]        UsedTime[s]
         0            0.000000         3.844830508       300.000000000     -1262.416671960     -1258.571366430         0.000000000
         1            1.000000         3.453114804       269.435658896     -1261.902710746     -1258.448318534        38.906357165
         2            2.000000         3.397927148       265.129540084     -1261.843647093     -1258.443751860        10.786175959
         3            3.000000         3.559207661       277.713749956     -1262.054237701     -1258.492437031        10.789692394
         4            4.000000         3.488156842       272.169878565     -1261.851821330     -1258.360495517        10.805104651
         5            5.000000         3.830754296       298.901677512     -1262.302015506     -1258.467552608        10.827211965
         6            6.000000         3.674825319       286.735031154     -1262.031652570     -1258.352579532        10.268385470
         7            7.000000         3.711240524       289.576394777     -1261.955425965     -1258.239435213        10.235291563
         8            8.000000         4.240638366       330.883638959     -1262.588134204     -1258.342218812        10.251442671
         9            9.000000         4.033668072       314.734399602     -1262.214949052     -1258.175391058        10.277457338
        10           10.000000         3.957206395       308.768336075     -1262.133584249     -1258.169852803        10.247674726
        11           11.000000         3.910750199       305.143505614     -1262.067612773     -1258.149688024        10.245953117
        12           12.000000         3.859650150       301.156329894     -1261.883412519     -1258.015932794        10.284295041
        13           13.000000         4.418764809       344.782283582     -1262.544486768     -1258.117173401        10.270041425
        14           14.000000         4.306150664       335.995357023     -1262.338697716     -1258.023130543        10.249021683
        15           15.000000         4.111232170       320.786481584     -1262.055179852     -1257.933594585        10.250089977
        16           16.000000         4.390280600       342.559750562     -1262.450514258     -1258.048860741        10.277167991
        17           17.000000         4.225732735       329.720599553     -1262.184461316     -1257.946212855        10.267392531
        18           18.000000         4.306044000       335.987034311     -1262.338259491     -1258.018475385        10.239102554
        19           19.000000         4.127611961       322.064545007     -1262.180013241     -1258.037356784        10.290587954
        20           20.000000         3.786414662       295.441995740     -1261.737344037     -1257.934606132        10.247830778
        21           21.000000         4.261155754       332.484546060     -1262.394370070     -1258.115580361        10.257177692
        22           22.000000         4.254310021       331.950395118     -1262.378042319     -1258.104632850        10.275781162
        23           23.000000         4.067913874       317.406491531     -1262.173556637     -1258.085027559        10.252112888
        24           24.000000         4.091323844       319.233097659     -1262.292064807     -1258.178586500        10.875984486
        25           25.000000         3.765615077       293.819069738     -1261.877228988     -1258.087936397        10.785148464
        26           26.000000         4.002739559       312.321145302     -1262.242339934     -1258.214419260        10.248215225
        27           27.000000         3.989861452       311.316307202     -1262.291197724     -1258.274582964        10.279554989
        28           28.000000         3.584960270       279.723144801     -1261.774259869     -1258.161038539        10.250920784
        29           29.000000         3.890623005       303.573044142     -1262.226240541     -1258.305903772        10.260358080
        30           30.000000         3.952172110       308.375526710     -1262.252216188     -1258.268804895        10.251684200
        31           31.000000         3.996620030       311.843657702     -1262.292340960     -1258.262916356        10.305974271
        32           32.000000         4.020578842       313.713088298     -1262.399390623     -1258.344400045        10.243446559
        33           33.000000         3.563903609       278.080159966     -1261.792347243     -1258.192491554        10.851118118
        34           34.000000         3.856842981       300.937295349     -1262.160086663     -1258.265824445        10.255503036
        35           35.000000         4.092377488       319.315310189     -1262.405350269     -1258.273984268        10.306239244
        36           36.000000         3.874845305       302.341959957     -1262.068832465     -1258.153390868        10.252717637
        37           37.000000         4.045657896       315.669927764     -1262.299284711     -1258.211420407        10.241405826
        38           38.000000         3.916332014       305.579037030     -1262.070528003     -1258.110342585        10.261988256
        39           39.000000         4.070119611       317.578598266     -1262.205987092     -1258.090345289        10.273408640
        40           40.000000         4.293164930       334.982121130     -1262.497456732     -1258.156977397        10.245759994
        41           41.000000         3.810771618       297.342492229     -1261.844194218     -1257.984303699        10.318730049
        42           42.000000         3.910311671       305.109288650     -1262.000572209     -1258.039421518        10.226190642
        43           43.000000         4.131485703       322.366800872     -1262.235264316     -1258.051139214        10.847205751
        44           44.000000         4.134610441       322.610614364     -1262.126031921     -1257.936885171        10.822328784
        45           45.000000         4.367133237       340.753634873     -1262.463764007     -1258.040082992        10.830075528
        46           46.000000         4.017380615       313.463540666     -1261.968213410     -1257.892215971        10.876329705
        47           47.000000         3.999023238       312.031172470     -1261.934655339     -1257.875003994        10.855120827
        48           48.000000         4.280361669       333.983123036     -1262.339777850     -1257.996682724        10.797693972
        49           49.000000         3.923002182       306.099489212     -1261.864961646     -1257.877079740        10.827114906
        50           50.000000         3.951492111       308.322468505     -1261.983471723     -1257.965028796        10.838863969
        51           51.000000         3.979614276       310.516752349     -1262.019566895     -1257.970910441        10.839201842
        52           52.000000         3.989495297       311.287737253     -1261.988048877     -1257.927400376        10.822551694
        53           53.000000         4.333250926       338.109904943     -1262.499457028     -1258.092827170        10.848026082
        54           54.000000         3.966549555       309.497353390     -1262.058110246     -1258.015898286        10.834479392
        55           55.000000         3.834914440       299.226280496     -1261.929297676     -1258.016564961        10.244961765
        56           56.000000         4.090442225       319.164307758     -1262.314596521     -1258.144161155        10.841091242
        57           57.000000         3.916340962       305.579735198     -1262.060978556     -1258.062431973        10.257354952
        58           58.000000         4.026110379       314.144696650     -1262.277494624     -1258.166987527        10.264464505
        59           59.000000         3.853396914       300.668409628     -1262.102496133     -1258.162525619        10.248234335
        60           60.000000         3.717090303       290.032834580     -1261.900976658     -1258.095245364        10.264524173
        61           61.000000         4.161648214       324.720286527     -1262.500307856     -1258.247907298        10.240244828
        62           62.000000         3.952220334       308.379289430     -1262.208841551     -1258.163675413        10.255536515
        63           63.000000         3.763619153       293.663334044     -1262.019669417     -1258.161026606        10.258676115
        64           64.000000         3.824082429       298.381092813     -1262.158547341     -1258.237438578        10.221731637
        65           65.000000         3.703953141       289.007783313     -1261.939097589     -1258.136170142        10.244797036
        66           66.000000         4.077988447       318.192578700     -1262.421588654     -1258.242660724        10.266944438
        67           67.000000         3.978903944       310.461327388     -1262.288155137     -1258.206274143        10.230750822
        68           68.000000         3.680330878       287.164612596     -1261.881677578     -1258.096443595        10.248074077
        69           69.000000         4.015545300       313.320336833     -1262.312988941     -1258.190656530        10.807493970
        70           70.000000         3.957943428       308.825844460     -1262.163682122     -1258.097009015        10.269818846
        71           71.000000         3.954949736       308.592256088     -1262.151309371     -1258.085712907        10.227759700
        72           72.000000         3.957474070       308.789221891     -1262.180269077     -1258.110244550        10.253039818
        73           73.000000         3.729264830       290.982774587     -1261.803548952     -1257.959902708        10.265388362
        74           74.000000         4.171277295       325.471613307     -1262.328423842     -1258.040926781        10.779228758
        75           75.000000         4.244021677       331.147628040     -1262.365175556     -1258.002953716        10.846924800
        76           76.000000         3.972013437       309.923682852     -1262.000179077     -1257.907996004        10.805946246
        77           77.000000         4.119642136       321.442684735     -1262.235410453     -1257.993661443        10.815255944
        78           78.000000         4.002250616       312.282994581     -1262.017724199     -1257.891412527        10.782447137
        79           79.000000         4.186448429       326.655369098     -1262.235083770     -1257.922604884        10.793872539
        80           80.000000         4.262956111       332.625022223     -1262.374861282     -1257.983815333        10.756906252
        81           81.000000         3.868741856       301.865727064     -1261.835384373     -1257.836539533        10.813552905
        82           82.000000         4.140143550       323.042345392     -1262.223962697     -1257.951755972        10.761489093
        83           83.000000         4.282505409       334.150392320     -1262.373283555     -1257.956639755        10.789582137
        84           84.000000         4.196995161       327.478297298     -1262.248304061     -1257.915040708        10.241718579
        85           85.000000         4.277413347       333.753074800     -1262.448063479     -1258.032222083        10.212460127
        86           86.000000         3.935272446       307.056899197     -1262.022195102     -1257.946371495        10.216524616
        87           87.000000         4.085231497       318.757731044     -1262.235233046     -1258.007395973        10.215615142
        88           88.000000         4.317241479       336.860738305     -1262.540225617     -1258.078224782        10.803303581
        89           89.000000         3.975907465       310.227521556     -1262.101724488     -1257.978899827        10.807847295
        90           90.000000         4.036264388       314.936981951     -1262.256182678     -1258.070931669        10.783514179
        91           91.000000         3.984449483       310.894028337     -1262.197460492     -1258.061969078        10.207612824
        92           92.000000         3.974850186       310.145025434     -1262.173427871     -1258.045519285        10.201451533
        93           93.000000         4.167544220       325.180333293     -1262.487741983     -1258.165097839        10.222991802
        94           94.000000         3.775102251       294.559323952     -1261.995210478     -1258.063018068        10.209249999
        95           95.000000         3.810637993       297.332065856     -1262.071988724     -1258.102413772        10.794316992
        96           96.000000         4.057042079       316.558199666     -1262.418420001     -1258.200578302        10.809955738
        97           97.000000         3.859338404       301.132005333     -1262.153251562     -1258.131257320        10.783429515
        98           98.000000         3.945971067       307.891678849     -1262.328251818     -1258.217834204        10.784538656
        99           99.000000         3.762456761       293.572636233     -1262.070973648     -1258.142335841        10.751478005
       100          100.000000         3.724467360       290.608443095     -1261.983538022     -1258.091262935        10.765006259
       101          101.000000         4.055783166       316.459970621     -1262.421026588     -1258.195806022        10.798816632
       102          102.000000         3.770900038       294.231438514     -1262.025866370     -1258.083906069        10.751537625
       103          103.000000         3.742271135       291.997615506     -1261.998881583     -1258.084042415        10.786436226
       104          104.000000         3.904455886       304.652380195     -1262.190413829     -1258.111911962        10.762901690
       105          105.000000         3.881134715       302.832702739     -1262.072659062     -1258.016005909        10.806842033
       106          106.000000         4.169988412       325.371045832     -1262.461367427     -1258.114362386        10.814155553
       107          107.000000         3.947243146       307.990935177     -1262.185019295     -1258.059234055        10.239060368
       108          108.000000         3.797352066       296.295406858     -1261.985505984     -1258.008171804        10.829168208
       109          109.000000         4.164466546       324.940192039     -1262.448439343     -1258.102544958        10.782882590
       110          110.000000         4.058484680       316.670761273     -1262.239798350     -1257.998375519        10.193755101
       111          111.000000         4.064557206       317.144581313     -1262.265305662     -1258.016308326        10.280361075
       112          112.000000         4.023793702       313.963933681     -1262.238148015     -1258.028411407        10.197924152
       113          113.000000         3.877413494       302.542347638     -1261.997568543     -1257.932746584        10.230433859
       114          114.000000         4.240043332       330.837210347     -1262.483232393     -1258.054291395        10.244050413
       115          115.000000         4.124982732       321.859394562     -1262.313492007     -1257.998041928        10.223657262
       116          116.000000         3.910279697       305.106793833     -1262.071184869     -1257.968910497        10.204824664
       117          117.000000         4.084941520       318.735105033     -1262.351679384     -1258.073235694        10.245476242
       118          118.000000         3.986305784       311.038869629     -1262.209264025     -1258.027926739        10.210837252
       119          119.000000         4.131843624       322.394728333     -1262.434898577     -1258.106484434        10.282823145
       120          120.000000         4.069332653       317.517194406     -1262.403646588     -1258.136168765        10.262474831
       121          121.000000         3.779901466       294.933791593     -1262.038913617     -1258.059353751        10.264116451
       122          122.000000         4.072251197       317.744919189     -1262.449113039     -1258.175721639        10.234476987
       123          123.000000         4.047964717       315.849921696     -1262.402623409     -1258.151979869        10.255232349
       124          124.000000         3.903580738       304.584095130     -1262.235549069     -1258.127776538        10.246966071
       125          125.000000         3.959753899       308.967109774     -1262.372562919     -1258.207135636        10.263581097
       126          126.000000         3.773305234       294.419108395     -1262.101735912     -1258.121313479        10.279718313
       127          127.000000         4.031852262       314.592717672     -1262.447632165     -1258.207238659        10.293512858
       128          128.000000         4.105451300       320.335418519     -1262.558547277     -1258.243065338        10.252845533
       129          129.000000         3.768232033       294.023262510     -1262.134017509     -1258.154299736        10.280232299
       130          130.000000         3.906410477       304.804890784     -1262.364714729     -1258.245431435        10.271898866
       131          131.000000         3.915274102       305.496491463     -1262.334209671     -1258.204666840        10.913897794
       132          132.000000         3.966430773       309.488085171     -1262.346289338     -1258.164194269        10.822021753
       133          133.000000         4.070909350       317.640219068     -1262.506498088     -1258.218500961        10.274541810
       134          134.000000         3.774302000       294.496882901     -1262.087005529     -1258.094215907        10.261106540
       135          135.000000         3.980831220       310.611706628     -1262.327508278     -1258.126832063        10.306774575
       136          136.000000         4.170424071       325.405038929     -1262.542081043     -1258.150381777        10.292912751
       137          137.000000         3.992574993       311.528036201     -1262.256296515     -1258.040980086        10.315458283
       138          138.000000         4.082433550       318.539416061     -1262.417848767     -1258.111209926        10.271616861
       139          139.000000         3.947662204       308.023632957     -1262.202767828     -1258.029425472        10.266263526
       140          140.000000         4.040433656       315.262296749     -1262.280413342     -1258.012829203        10.304032933
       141          141.000000         4.271062786       333.257560530     -1262.581389848     -1258.081625289        10.307374585
       142          142.000000         3.989628842       311.298157355     -1262.181447276     -1257.961522582        10.280785926
       143          143.000000         4.068679728       317.466248721     -1262.303661806     -1258.003115572        10.305444725
       144          144.000000         4.191107429       327.018896125     -1262.436854847     -1258.012246633        10.271921299
       145          145.000000         4.116188393       321.173200017     -1262.302457947     -1257.951081167        10.258502483
       146          146.000000         4.250071034       331.619640291     -1262.515338409     -1258.028340201        10.296302874
       147          147.000000         4.003238106       312.360045280     -1262.190948632     -1257.949017570        10.307987064
       148          148.000000         3.997985717       311.950217956     -1262.188795004     -1257.950390259        10.278938863
       149          149.000000         4.261809355       332.535544450     -1262.557590881     -1258.053566210        10.292884499
       150          150.000000         4.055808343       316.461935102     -1262.276972280     -1257.977089224        10.301679827
       151          151.000000         4.064443298       317.135693457     -1262.340098361     -1258.029740741        10.281456262
       152          152.000000         4.027742014       314.272007987     -1262.315977326     -1258.040468897        10.273032743
       153          153.000000         3.951816324       308.347765793     -1262.218434484     -1258.017014332        10.880717777
       154          154.000000         4.183132072       326.396604231     -1262.561102674     -1258.126488926        10.890142344
       155          155.000000         3.938837114       307.335039004     -1262.264793977     -1258.072568101        10.870287713
       156          156.000000         3.822090822       298.225693956     -1262.145582239     -1258.068283256        10.266299699
       157          157.000000         4.038023339       315.074227320     -1262.454477870     -1258.159425263        10.277846951
       158          158.000000         3.982230536       310.720890840     -1262.333690861     -1258.092565160        10.311011169
       159          159.000000         4.090830460       319.194600493     -1262.513910692     -1258.162299364        10.312658150
       160          160.000000         3.951724066       308.340567193     -1262.372372430     -1258.157969726        10.269744352
       161          161.000000         3.797556773       296.311379545     -1262.176581243     -1258.114520739        10.863731202
       162          162.000000         4.106909111       320.449166929     -1262.584230910     -1258.210979273        10.884452216
       163          163.000000         4.012822359       313.107874336     -1262.427024300     -1258.145951341        10.296705697
       164          164.000000         3.921371444       305.972247839     -1262.317533816     -1258.126037508        10.282552138
       165          165.000000         3.992965576       311.558512188     -1262.426815308     -1258.161860195        10.301757667
       166          166.000000         3.896186850       304.007173413     -1262.256473786     -1258.086437221        10.303038646
       167          167.000000         4.148868042       323.723089947     -1262.592834853     -1258.168225169        10.272889227
       168          168.000000         4.099933494       319.904881544     -1262.527229740     -1258.149583465        10.273700666
       169          169.000000         3.844812151       299.998567622     -1262.193056237     -1258.068610478        10.886934549
       170          170.000000         4.019593904       313.636236656     -1262.445646267     -1258.144531165        10.290863149
       171          171.000000         3.986307965       311.039039834     -1262.365269155     -1258.095512530        10.849855151
       172          172.000000         4.037051923       314.998430829     -1262.413868093     -1258.091429281        10.889473706
       173          173.000000         4.082787572       318.567039306     -1262.486145106     -1258.115994185        10.867733587
       174          174.000000         3.870592827       302.010152457     -1262.182871732     -1258.022962336        10.858155582
       175          175.000000         4.099203801       319.847945897     -1262.478665251     -1258.088196095        10.835153393
       176          176.000000         4.149974176       323.809398131     -1262.520801972     -1258.077521715        10.866335426
       177          177.000000         3.969886098       309.757693303     -1262.277618666     -1258.012385750        10.863974590
       178          178.000000         4.058989814       316.710175247     -1262.427267379     -1258.070905748        10.879884988
       179          179.000000         3.955218696       308.613242201     -1262.287322466     -1258.032697337        10.865965717
       180          180.000000         4.069471861       317.528056377     -1262.436455102     -1258.065537150        10.855913352
       181          181.000000         4.157416577       324.390105205     -1262.580204443     -1258.119230543        10.871778797
       182          182.000000         3.884723948       303.112759326     -1262.233736972     -1258.043363131        10.873490565
       183          183.000000         4.009474479       312.846649803     -1262.425202262     -1258.108032086        10.841885038
       184          184.000000         4.059060766       316.715711415     -1262.483599859     -1258.114747122        10.882257894
       185          185.000000         3.979320082       310.493797319     -1262.370928501     -1258.079714089        10.855175268
       186          186.000000         4.069618042       317.539462430     -1262.514256089     -1258.130633613        10.836372416
       187          187.000000         3.877289506       302.532673224     -1262.261404101     -1258.068015206        10.816119630
       188          188.000000         3.984033557       310.861574927     -1262.405613155     -1258.103420864        10.292201079
       189          189.000000         4.171476083       325.487124123     -1262.665186793     -1258.173412021        10.265189633
       190          190.000000         3.956888403       308.743524127     -1262.393913501     -1258.114563913        10.839934267
       191          191.000000         3.980924932       310.619018680     -1262.484392431     -1258.178893264        11.433554739
       192          192.000000         3.952616879       308.410230638     -1262.456527509     -1258.177225962        11.392531116
       193          193.000000         3.971703337       309.899486734     -1262.448024449     -1258.147533259        10.810510628
       194          194.000000         4.168152555       325.227799755     -1262.714509906     -1258.215406457        10.846274503
       195          195.000000         3.958442370       308.864775305     -1262.413303398     -1258.121722538        10.300879735
       196          196.000000         3.977084413       310.319355142     -1262.442778304     -1258.130418701        10.826541051
       197          197.000000         4.158347816       324.462766854     -1262.700361702     -1258.204545492        10.849295542
       198          198.000000         4.067710039       317.390586935     -1262.551498285     -1258.144072967        10.792990070
       199          199.000000         4.143211322       323.281713958     -1262.677332623     -1258.192141904        10.840802178
       200          200.000000         4.016492451       313.394240077     -1262.533022955     -1258.172274383        10.800742995
       201          201.000000         3.949758207       308.187177483     -1262.419906769     -1258.123663259        11.575322788
       202          202.000000         4.196475642       327.437760846     -1262.744020617     -1258.198781078        11.348343886
       203          203.000000         4.078852152       318.259970863     -1262.531602991     -1258.101639129        10.862485319
       204          204.000000         4.042784120       315.445696085     -1262.480878952     -1258.084659746        10.802466631
       205          205.000000         4.097478651       319.713337823     -1262.559781593     -1258.106527793        10.775757883
       206          206.000000         4.018188678       313.526591337     -1262.415294873     -1258.038981636        10.786020350
       207          207.000000         4.199193654       327.649838823     -1262.650399609     -1258.090692519        10.815784492
       208          208.000000         4.093523345       319.404717795     -1262.529466730     -1258.072985721        11.388404720
       209          209.000000         3.968136607       309.621186017     -1262.368124860     -1258.034637476        11.335174188
       210          210.000000         4.167730146       325.194840475     -1262.648066908     -1258.112571446        11.355393652
       211          211.000000         4.086558101       318.861241758     -1262.511995325     -1258.055196948        10.786621537
       212          212.000000         4.091171799       319.221234123     -1262.519367134     -1258.055485960        11.335095588
       213          213.000000         4.075288730       317.981928260     -1262.526218355     -1258.075739940        11.875674762
       214          214.000000         3.915101927       305.483057166     -1262.310651081     -1258.017925308        12.470431015
       215          215.000000         4.098329757       319.779746954     -1262.548836030     -1258.070454869        11.914726675
       216          216.000000         4.043685286       315.516011240     -1262.480634343     -1258.054421776        12.445553131
       217          217.000000         3.911052622       305.167102712     -1262.349541100     -1258.053540625        11.872868661
       218          218.000000         4.019553958       313.633119790     -1262.520314424     -1258.113417106        12.437505700
       219          219.000000         3.943897934       307.729918825     -1262.404116797     -1258.070476301        11.893369395
       220          220.000000         4.036525758       314.957375791     -1262.539109467     -1258.110449769        11.360583365
       221          221.000000         4.026988894       314.213244380     -1262.558984927     -1258.137446544        11.311498623
       222          222.000000         3.809611085       297.251939450     -1262.283199927     -1258.076697138        11.897708982
       223          223.000000         3.974717179       310.134647331     -1262.513886725     -1258.139985849        11.848532051
       224          224.000000         4.004446889       312.454362833     -1262.528536352     -1258.122570263        11.307053581
       225          225.000000         3.950126125       308.215884937     -1262.445460021     -1258.091492755        11.327315036
       226          226.000000         4.014367393       313.228428489     -1262.555554606     -1258.135033533        11.307294372
       227          227.000000         3.877583227       302.555591335     -1262.355578628     -1258.069557200        10.792167820