    2699
 i =        0, time =        0.000, E =     -1262.4166719603
  C        12.1311915000       12.2758235000       11.2731870000
  O        10.8886975000       12.2992345000       11.4329930000
  O        12.5120495000       11.1241085000       10.5367140000
  N        11.4512775000       14.1054515000        8.6456940000
  H        18.1311165000       12.8024675000        7.1925980000
  H        10.5716595000       14.2202955000        9.0057920000
  H        11.9749915000       14.6955935000        8.1168360000
  N        11.1830595000       15.8894165000        4.3182690000
  H        12.1926795000       15.5440105000        4.0486200000
  H        10.6875485000       15.0224915000        4.4717140000
  H        11.2707725000       16.2831825000        5.2986570000
  O        24.3965125000       14.8282755000       11.6779000000
  H        24.2367225000       14.2012505000       10.9692420000
  H        23.4917995000       15.0881315000       11.9381450000
  O        -6.0126415000       17.4646635000       11.1656400000
  H        -6.9444445000       17.4796145000       11.3015040000
  H        -5.6732795000       16.6303655000       11.4237520000
  O         2.3054315000        9.6398855000       -9.9343340000
  H         2.7951245000       10.0244075000       -9.1812450000
  H         3.0332095000        9.5461155000      -10.5795570000
  O        27.7936745000       25.8868245000       -4.9969570000
  H        26.9069615000       26.2716795000       -5.2404410000
  H        27.5044415000       25.2627755000       -4.2873090000
  O        25.9956165000       11.0558295000       10.0520590000
  H        26.3572745000       10.1571605000        9.9821190000
  H        26.8174915000       11.5715495000       10.1535140000
  O        19.7780335000       -7.7933015000        4.1374940000
  H        20.2595305000       -8.6277165000        4.3963860000
  H        19.8989845000       -7.9215415000        3.1520080000
  O         0.1428825000       22.3737435000       -5.1633680000
  H        -0.7333315000       22.5073175000       -5.5883100000
  H         0.3687095000       21.4887125000       -5.5161650000
  O        -0.6257915000       18.1860965000        2.1804250000
  H        -1.2068665000       17.8441945000        1.4613180000
  H         0.1539205000       18.3877285000        1.6399250000
  O        30.0633825000       10.0462545000        2.7869550000
  H        30.2054705000       10.5850055000        3.5900550000
  H        30.5344235000        9.2226785000        3.0585000000
  O        16.6969605000       20.4519925000        0.9137750000
  H        17.2184955000       20.8075705000        0.1731010000
  H        17.2019495000       19.6012045000        1.0408970000
  O         3.6485255000       11.3805815000        3.0947080000
  H         3.4337455000       11.5354045000        4.0602970000
  H         4.2407155000       12.1465035000        2.9625710000
  O         3.8329065000       21.5726995000      -11.7799740000
  H         3.2672205000       21.6993085000      -10.9741120000
  H         3.3675535000       20.7966965000      -12.1652820000
  O        28.6972825000        7.7500855000        1.5551620000
  H        29.4573135000        7.1391075000        1.6876320000
  H        29.0651855000        8.5837575000        1.9296230000
  O         7.4315555000        2.0915505000       -5.2848470000
  H         7.0276415000        1.6077865000       -6.0680150000
  H         6.8609965000        1.7267705000       -4.5716560000
  O        25.3499995000        1.9279005000       -3.4888190000
  H        25.2117245000        1.9937085000       -2.5304310000
  H        26.2933135000        2.1877935000       -3.5565140000
  O        15.3830205000        1.9946045000      -10.1596310000
  H        15.2009995000        2.5618395000      -10.9616600000
  H        14.4817265000        2.0072525000       -9.7818580000
  O         1.2793625000       26.2361705000        6.1638810000
  H         1.1541125000       25.2754045000        6.2782870000
  H         1.9260815000       26.4066515000        6.8583670000
  O        27.0297315000       -2.8653185000       -3.6005710000
  H        26.2477295000       -2.4828795000       -3.9587580000
  H        27.5231685000       -2.1178145000       -3.2511400000
  O        15.0394785000       31.5895945000       -3.7635590000
  H        14.6688405000       31.2774435000       -4.6280240000
  H        15.4042385000       30.7285695000       -3.4199980000
  O        14.2295635000       18.5967375000      -10.4996840000
  H        13.9508025000       19.4968305000      -10.2101540000
  H        13.3370135000       18.2761255000      -10.7881120000
  O        10.2685625000       15.9784585000      -13.3031780000
  H         9.3342235000       16.0754115000      -13.0334510000
  H        10.4168545000       16.8545555000      -13.7376240000
  O        18.6728895000       28.3012095000      -11.0642580000
  H        18.2361005000       29.1025645000      -10.6643430000
  H        17.8302575000       27.8957635000      -11.4265620000
  O        23.1520645000        8.9625225000       -1.4407220000
  H        23.6563045000        8.1616065000       -1.6923090000
  H        22.2690945000        8.7083685000       -1.7842950000
  O        20.4285445000        2.3513265000       -6.7560000000
  H        20.5161895000        2.2682765000       -5.7867850000
  H        19.4818455000        2.2353205000       -6.8992010000
  O        -3.0920155000        3.8371895000       -9.4344270000
  H        -3.2814175000        4.3597875000      -10.2037260000
  H        -2.3759615000        3.2324965000       -9.7329860000
  O        20.5745765000       10.3363055000       -4.2132680000
  H        20.5555035000        9.7870425000       -3.3851150000
  H        19.6694005000       10.0894935000       -4.5438130000
  O        18.2425345000        8.2457975000        3.5762160000
  H        18.7033195000        7.6531905000        2.9612650000
  H        18.0822275000        7.5793765000        4.3128820000
  O         9.1546095000       24.5228715000        2.6354220000
  H         8.8341895000       24.0460665000        3.4195400000
  H         9.3014125000       23.8270955000        1.9822760000
  O        24.2066855000        7.4622985000      -14.4184030000
  H        24.2190645000        8.4452765000      -14.4230020000
  H        23.3347775000        7.3466265000      -13.9426130000
  O        21.0254245000       -3.6673675000        3.5241590000
  H        21.2423145000       -4.0127805000        2.6164310000
  H        20.7577875000       -4.5168975000        3.9641540000
  O        24.8873345000       -2.6793585000        1.5120730000
  H        25.4030965000       -3.4840945000        1.6871890000
  H        24.1287955000       -3.0571525000        1.0287450000
  O         1.1638635000        7.1757265000       -8.8265430000
  H         1.3957735000        7.4580495000       -7.9227710000
  H         1.5211865000        7.9391435000       -9.3373440000
  O        23.3978285000       -0.3096365000       12.0050840000
  H        24.0047245000        0.0213715000       12.7187230000
  H        24.0583585000       31.2915545000       11.4141310000
  O        15.3278855000       -1.6041765000        1.6935310000
  H        14.8397475000       -2.3214735000        1.2477450000
  H        16.0943565000       -2.0946435000        2.0498000000
  O        10.5402155000        3.6531835000       -0.5725060000
  H        10.6293055000        2.6738095000       -0.7567490000
  H        10.3669145000        3.5586875000        0.3887360000
  O         9.7799065000       -3.4134735000      -12.3714750000
  H         8.9148265000       -3.0554965000      -12.6586390000
  H        10.3391225000       -2.6438575000      -12.6101780000
  O        21.2088005000       18.5029075000       15.1585940000
  H        20.7599595000       18.8490415000       15.9460830000
  H        20.4351825000       18.1998815000       14.6387920000
  O        28.9081685000        1.0204895000       10.0508190000
  H        29.6768755000        0.8573985000       10.6412880000
  H        28.8204555000        0.1159025000        9.6591500000
  O        24.3139535000        6.6020625000       -1.7672940000
  H        25.2271385000        6.4135755000       -2.0582910000
  H        23.8819485000        5.7564755000       -2.0114780000
  O         6.2883675000        3.7838705000      -10.5741710000
  H         5.4747675000        3.6002365000      -11.1069380000
  H         5.9740395000        3.4645465000       -9.7013240000
  O        11.6708845000        4.5126935000        3.5404810000
  H        11.5712845000        4.2785335000        4.4509890000
  H        12.4355685000        4.0095175000        3.2226950000
  O        17.6492515000       -1.3981395000       -1.3200490000
  H        18.0163075000       -2.0852375000       -0.7473220000
  H        17.9649195000       -0.5812145000       -0.9001770000
  O         3.7432935000        3.5454785000      -11.7974950000
  H         3.4748205000        3.9726635000      -12.6209970000
  H         3.2364765000        4.0515485000      -11.1279250000
  O        21.6088825000        0.8253075000        7.4707260000
  H        21.3036305000       -0.0978935000        7.3925050000
  H        21.1638425000        1.1244795000        8.2648500000
  O        16.7062255000       14.3935555000        3.2528630000
  H        16.6237155000       13.9324365000        2.4189080000
  H        16.2788155000       15.2204825000        2.8807930000
  O         6.0821415000       12.5230355000      -10.8806990000
  H         6.7429145000       12.4327155000      -10.1646220000
  H         6.7420695000       12.3775265000      -11.6375320000
  O        11.1288985000       12.2168285000      -11.1218980000
  H        11.4689855000       12.6333565000      -10.3036040000
  H        10.2254515000       11.9820085000      -10.8577300000
  O        31.4515685000       -0.3369805000        9.5995340000
  H        32.3277455000       -0.0417935000        9.2273340000
  H        31.6671635000       -0.1046005000       10.5563990000
  O        22.0207705000       12.7634255000        7.2792600000
  H        21.2119515000       12.2509235000        7.1725820000
  H        22.3885375000       12.4044425000        8.1227840000
  O        10.6188195000        0.1940985000       -7.8255300000
  H        10.2940395000        0.4992795000       -6.9243750000
  H        10.3084975000       -0.7386365000       -7.7786460000
  O        19.5584635000       17.1471655000       -0.0449160000
  H        19.8220175000       16.9050315000       -0.9547750000
  H        19.8771935000       16.3682595000        0.4427250000
  O        18.4035585000        7.9249305000        8.5134220000
  H        18.5721925000        7.8290495000        7.5605910000
  H        17.5058495000        7.5509055000        8.5787240000
  O         8.2147875000       20.3933145000        5.8759490000
  H         8.6910265000       20.3641625000        5.0712620000
  H         8.5751265000       21.1837545000        6.3377410000
  O         7.2013745000       22.8447385000       -4.6764710000
  H         6.7890335000       23.5673795000       -5.1847190000
  H         7.4859335000       22.2277895000       -5.3667010000
  O         8.4952145000       -0.1181465000      -12.3361980000
  H         8.0451155000       -0.8485975000      -12.7947390000
  H         9.4294535000       -0.2702675000      -12.5607990000
  O        15.4185935000       20.2517805000        3.5527460000
  H        15.6478155000       19.4562515000        3.0309850000
  H        15.5864625000       20.9571915000        2.9250780000
  O         4.2595855000       -0.4897485000        4.0544670000
  H         5.1689395000       -0.8149435000        3.8699550000
  H         4.0710125000       -1.0814915000        4.8409410000
  O        20.2670725000        1.6673125000      -13.0040400000
  H        21.1106925000        2.1830655000      -12.8393430000
  H        20.5035815000        0.8663925000      -12.4862360000
  O        28.0429645000       22.0960065000      -10.9943680000
  H        28.3994485000       22.9829885000      -10.8082840000
  H        28.5944875000       21.8286595000      -11.7541600000
  O        10.2364195000       -1.1487965000        2.1887870000
  H        10.9954875000       30.2467655000        2.3400900000
  H         9.5821535000       -1.7677775000        1.7697130000
  O        -0.6222935000       21.3782905000        3.4151970000
  H         0.1366495000       21.9586185000        3.1866990000
  H        -0.1515445000       20.6584365000        3.8751820000
  O        27.4694285000       20.1444515000        4.6028610000
  H        27.5430295000       19.4593185000        5.3030200000
  H        27.9267285000       19.6852915000        3.8618900000
  O        11.3422595000        7.6052555000        1.1594650000
  H        12.0515025000        7.1542905000        1.6121220000
  H        11.4693235000        7.3746615000        0.2250720000
  O        28.1171015000        6.0319085000        9.3923470000
  H        29.0083025000        5.8718545000        9.8284770000
  H        27.8912845000        5.0561495000        9.2886610000
  O         7.4139145000       -6.5363495000        6.8403430000
  H         7.2773215000       -6.7096835000        5.8675270000
  H         7.8578115000       -7.3740155000        7.0964680000
  O        18.0314135000       21.3173225000        4.6751390000
  H        18.8931255000       20.9580825000        5.0378070000
  H        17.6724235000       20.5073115000        4.3121790000
  O        28.5767115000       20.2857345000        0.5542280000
  H        28.7735015000       21.1821865000        0.8597140000
  H        28.2262075000       19.8539415000        1.3409470000
  O        14.9723835000       13.5980365000       -5.6894400000
  H        15.8789345000       13.2793775000       -5.4462310000
  H        14.8294775000       13.0510055000       -6.4988130000
  O        15.7143765000        0.4730045000       12.2351190000
  H        16.2516285000        0.8063835000       11.4968870000
  H        15.6642675000       -0.4656185000       12.0688260000
  O        17.0595125000       19.1522105000       26.6513420000
  H        16.9559415000       19.5344225000       27.5436400000
  H        16.1233365000       19.0102335000       26.3911680000
  O         4.2115465000        1.0320625000        1.4714700000
  H         3.6237465000        0.4690615000        1.9890830000
  H         5.0764375000        0.8412965000        1.8979280000
  O         9.1930735000        9.4904685000      -13.3099190000
  H         9.9526045000       10.0751515000      -13.5270950000
  H         9.4372195000        8.7106645000      -13.8583450000
  O         4.2917945000       -1.7905775000       -6.9403380000
  H         5.2496385000       -1.8808685000       -6.9998260000
  H         3.9994375000       -2.3665035000       -7.6780290000
  O        26.0161125000       11.4524775000      -15.1137030000
  H        25.2660535000       10.8948105000      -14.7990010000
  H        25.4833905000       12.2955155000      -15.2089020000
  O         8.5952505000       18.4716895000        7.7267510000
  H         9.5854545000       18.6317865000        7.7288980000
  H         8.4656185000       19.1384225000        6.9885960000
  O        15.2470585000        9.3745015000       -0.6432110000
  H        16.2203175000        9.3048205000       -0.8530190000
  H        15.3196025000        9.4402825000        0.3386940000
  O         7.9388155000       15.1377935000       -8.8797990000
  H         8.1483935000       14.2274895000       -9.1770470000
  H         7.0460115000       15.2456405000       -9.2826560000
  O        17.0147935000        1.3734055000       -3.3592530000
  H        16.9117995000        1.3277115000       -2.3778410000
  H        16.3087745000        0.7127915000       -3.6170290000
  O        21.7756805000        7.7681595000      -13.2334120000
  H        21.7458305000        8.6444995000      -12.7825550000
  H        20.9164065000        7.8004375000      -13.7146870000
  O        11.8245535000       19.9994325000        1.8770370000
  H        11.1243395000       20.5811585000        2.1280970000
  H        12.3342355000       20.5478715000        1.2287630000
  O        25.7380925000        0.9898115000       -7.6418890000
  H        25.4274025000        1.9142855000       -7.7538800000
  H        25.7493305000        0.6922095000       -8.5802450000
  O        11.3068795000       15.7699015000       -8.1738760000
  H        10.6515955000       16.3642035000       -7.7493040000
  H        11.4623015000       15.1657605000       -7.3865380000
  O        16.5574185000        9.4872755000        6.3029870000
  H        15.7116805000        9.3135595000        5.8723170000
  H        17.0874995000        8.7371465000        6.2285280000
  O        17.4606305000       21.9783405000       10.4152400000
  H        17.2622025000       22.1610285000        9.4358500000
  H        17.7344775000       22.8106755000       10.8020810000
  O        11.0049795000        2.4141775000        6.0448370000
  H        11.6105765000        1.6185905000        6.2542260000
  H        10.4212725000        2.3026785000        6.8298610000
  O        23.2983505000       15.9933265000        8.4339400000
  H        23.8249985000       15.8175615000        7.6081800000
  H        23.1931055000       16.9636505000        8.3384850000
  O        32.5361155000       19.4347975000       12.1398610000
  H        32.8692295000       20.1532975000       11.5719260000
  H        31.5731905000       19.4024685000       11.8432240000
  O        11.0956965000        6.3270685000       -1.2056660000
  H        10.4995495000        5.5439405000       -1.2140130000
  H        11.4539695000        6.2469025000       -2.1073940000
  O        -2.8842435000       -1.1924635000        8.3000410000
  H        -1.9935445000       -1.1258705000        8.6793340000
  H        -2.7393645000       -1.8123255000        7.5648040000
  O        -0.1267635000       -0.1398155000        0.8580960000
  H        -0.9672865000       -0.3331155000        0.3667570000
  H         0.1672965000       -1.0778655000        0.9957000000
  O         8.2053735000       -3.1285395000        1.7748540000
  H         8.2986755000       -3.8595045000        2.4071710000
  H         7.5672115000       -3.5012385000        1.1510680000
  O        21.2589245000       18.5472375000       10.1315810000
  H        21.0211025000       17.7527875000       10.6267440000
  H        22.0359165000       18.2143235000        9.6050770000
  O        19.5757915000       26.7389345000       -8.9198870000
  H        19.2101185000       27.1119005000       -9.7691470000
  H        18.7706045000       26.8532395000       -8.3764330000
  O        11.5776975000        5.2567735000       -8.4992430000
  H        12.4378895000        5.7591155000       -8.5338200000
  H        11.1227155000        5.6776145000       -9.2721340000
  O        25.6088575000       23.4306495000        0.3843470000
  H        26.5542545000       -8.7843975000        0.6087660000
  H        25.3122285000       22.5198945000        0.0915770000
  O        11.7149635000       17.5208955000       -3.8227520000
  H        12.6605695000       17.6079565000       -3.6399440000
  H        11.6631685000       17.9328025000       -4.7277790000
  O         9.1718095000        7.8393445000        7.0582690000
  H         8.8205205000        8.7431875000        7.2451100000
  H        10.0190025000        8.0148755000        6.5552610000
  O        23.3785125000      -10.8226865000        6.5284580000
  H        23.7738095000      -10.3581005000        7.3175120000
  H        24.1661565000       21.3682675000        5.9251770000
  O         5.2543485000       13.6734535000        2.9134900000
  H         6.1944015000       13.5827325000        2.6625610000
  H         4.9046605000       14.3186795000        2.2949260000
  O         4.1156505000        3.7591315000        0.5742250000
  H         3.8480385000        3.1333165000        1.3183970000
  H         5.0555815000        3.4675565000        0.4833050000
  O         9.1501575000       14.6578515000        2.5678430000
  H         8.9221325000       15.5585275000        2.2283530000
  H         8.6586745000       14.0406735000        2.0117380000
  O        18.1342675000        7.6138405000       -9.4291950000
  H        18.1072385000        8.5398975000       -9.7449670000
  H        18.4212715000        7.1604735000      -10.2722450000
  O         1.8988285000       13.7144625000      -10.1205030000
  H         2.4001325000       13.0603315000       -9.5756740000
  H         1.0875395000       13.2176185000      -10.2791020000
  O        23.6557265000       10.0159105000        1.1280730000
  H        23.2517465000        9.5745925000        0.3267330000
  H        24.6147135000        9.8786625000        0.8480190000
  O         6.4845335000        6.8315215000       -2.6553100000
  H         6.7190065000        6.5177315000       -3.5488330000
  H         6.9855195000        6.1692245000       -2.1258260000
  O        19.6011695000        3.6435265000       10.8184480000
  H        19.6894815000        4.5362975000       10.4378230000
  H        20.3425635000        3.5960655000       11.3960910000
  O         6.8711835000       21.1611195000        3.3661450000
  H         6.8126035000       20.6101195000        4.1501420000
  H         6.1289365000       20.8036595000        2.8025820000
  O         8.7867515000       22.1921255000       11.4909420000
  H         9.0493455000       21.3277665000       11.1513250000
  H         8.1576335000       21.8995155000       12.2029060000
  O        17.0546565000        5.0183405000       -9.0745970000
  H        17.3760165000        5.9419935000       -9.1419750000
  H        16.7843735000        4.9494605000       -8.1561350000
  O         4.8124275000       30.5504805000       -2.3676430000
  H         4.8094815000       -2.3931295000       -2.0761130000
  H         4.0188815000       -1.1384715000       -1.8995320000
  O         0.3805725000       17.7831525000      -12.1615570000
  H        -0.2874415000       17.0633705000      -12.0600770000
  H         0.5246805000       17.9279235000      -11.1757280000
  O         3.1744515000       -1.5484785000        0.8797910000
  H         2.2491375000       -1.5766135000        1.1961800000
  H         3.5218635000       -2.3256535000        1.3989650000
  O         9.5711455000        7.2025455000      -14.4990060000
  H        10.2773985000        6.6210885000      -14.1726200000
  H         9.4204975000        6.8430385000      -15.4014660000
  O        20.9628595000       -0.1078925000       -2.5959540000
  H        21.1219665000        0.3755575000       -1.7377130000
  H        21.0342075000       -1.0272335000       -2.2602960000
  O        14.1474495000        7.5356495000       -2.3945800000
  H        14.5720435000        8.0664005000       -1.6956010000
  H        14.6456525000        6.7106155000       -2.3812530000
  O        18.5397125000       15.2813145000       10.5266120000
  H        18.1080075000       15.8644975000        9.8719540000
  H        18.0851645000       14.5265935000       10.3111840000
  O        23.3696745000       -6.8209885000        0.6541300000
  H        24.1697745000       24.6953095000        0.9723810000
  H        23.5550555000       -6.9257315000       -0.3101240000
  O         6.9990585000        3.3064015000        1.0418270000
  H         6.8734345000        2.3760795000        1.2990790000
  H         7.9460775000        3.3595205000        0.9283980000
  O        23.6623015000       21.9886515000       -4.7374790000
  H        23.7207885000       21.7032855000       -5.6709970000
  H        24.5559745000       22.2959825000       -4.5750420000
  O         8.0589905000       -6.0432315000       -2.5097320000
  H         7.3648015000       -6.4238585000       -1.9056090000
  H         8.6058975000       -6.8979045000       -2.5705660000
  O         8.9533765000        5.5233915000        3.6005100000
  H         9.9328185000        5.5602575000        3.3091720000
  H         9.0161895000        4.6283045000        4.0160220000
  O        28.0854675000        0.6995615000        1.1459970000
  H        27.7620595000       -0.2238275000        1.0608650000
  H        27.6199165000        0.9360995000        1.9834970000
  O        21.4632815000       10.5916115000        5.2917670000
  H        20.6247095000       10.7089875000        5.7025360000
  H        22.0946465000       11.0293195000        5.8843540000
  O         2.6855825000       12.5440415000       -1.2429800000
  H         3.1805665000       11.6677465000       -1.1512370000
  H         2.0732075000       12.4250885000       -0.4671640000
  O        17.0508935000       18.2698025000        6.9485080000
  H        18.0117835000       18.3221685000        6.5658980000
  H        16.6190755000       18.8517115000        6.3068350000
  O         6.9756325000       27.1703995000       -7.6952870000
  H         7.0719975000       28.1575725000       -7.5804350000
  H         7.9358595000       26.9781405000       -7.9279970000
  O        27.4721655000       26.3752405000       -9.4330760000
  H        27.5123475000       27.2668575000       -9.8486640000
  H        -5.5084415000       26.2757515000       -9.3487550000
  O         1.1616905000       27.5342055000       -6.7332240000
  H         0.1883155000       27.6006875000       -6.8804580000
  H         1.2607395000       26.5648235000       -6.9099370000
  O        -6.0210525000        4.1927985000        4.1551840000
  H        -5.5007945000        3.7092265000        4.8893750000
  H        -6.8855105000        4.1853365000        4.6792690000
  O        15.8732845000       -3.0043845000       -2.9120330000
  H        16.4749715000       -2.8232895000       -2.1510270000
  H        16.1471175000       -3.9297945000       -3.1053830000
  O        16.7667635000       25.0146835000       -9.6435620000
  H        17.5256895000       25.0932755000      -10.2670590000
  H        16.0235015000       24.8825665000      -10.2791870000
  O        11.5361735000       12.8369015000        5.5268460000
  H        12.4356855000       12.9478525000        5.3186000000
  H        11.5011145000       12.7536365000        6.4745670000
  O        -6.9588145000       21.2491615000        8.9733190000
  H        -6.8123945000       21.9200735000        9.6702780000
  H        -6.1138405000       20.7270515000        9.0746120000
  O         8.3138875000       22.5940705000        7.3580660000
  H         7.6829435000       22.2022935000        8.0093740000
  H         9.0584155000       22.8623075000        7.9321370000
  O        25.6158215000        0.7571345000      -10.5028310000
  H        24.8377965000        0.9497685000      -11.0838890000
  H        26.0545405000        1.6236075000      -10.5610650000
  O        -1.8995965000       16.4382175000       -2.6259960000
  H        -2.2711385000       16.9728685000       -1.8693680000
  H        -2.7380615000       16.2704355000       -3.1077330000
  O        16.7457885000       13.7154285000       -8.8016550000
  H        16.3527865000       14.0911805000       -9.6381840000
  H        15.9527345000       13.1521235000       -8.5832210000
  O        17.3567925000        0.8394345000      -13.0279090000
  H        17.2639485000        1.0389365000      -12.0769440000
  H        18.3312885000        0.8375705000      -13.0927140000
  O        24.8344585000       -0.2609505000       -5.2063730000
  H        25.2627905000       -0.0092375000       -6.0497340000
  H        24.9338355000        0.6184065000       -4.7439890000
  O         3.0821545000        2.8716385000       11.4370580000
  H         3.1973485000        3.3237155000       12.3093010000
  H         3.9285785000        3.0005815000       10.9817560000
  O        18.3903175000       22.5439455000       -3.6017780000
  H        19.3639485000       22.7217315000       -3.6377380000
  H        18.3853255000       21.5857685000       -3.8421620000
  O        19.7958985000       21.6090915000       -7.4919920000
  H        19.3501885000       20.9661755000       -6.9301840000
  H        19.1328595000       21.7009585000       -8.2116400000
  O        15.9630155000       13.6186765000        9.5666170000
  H        16.6684185000       12.9800675000        9.2549070000
  H        15.4181105000       13.6667135000        8.7545200000
  O        27.3076285000       16.1493245000       -3.1737530000
  H        27.3224315000       16.4467515000       -4.1361610000
  H        26.6070245000       15.4438275000       -3.2771410000
  O         7.1321385000       -0.5666645000       -9.7843700000
  H         7.4659265000       -0.3238775000      -10.6911920000
  H         6.1599235000       -0.6180745000      -10.0087900000
  O        -1.9615755000       25.0456835000        7.9928510000
  H        -1.0085985000       25.1907625000        8.1448790000
  H        -1.9510725000       24.2048995000        7.4892370000
  O        13.2235315000        2.7579095000        2.3318620000
  H        13.8913615000        2.2266585000        2.9001170000
  H        12.6404765000        1.9871395000        2.1232060000
  O         3.0834045000       15.7563515000       -1.5709360000
  H         2.1768215000       16.0761075000       -1.7425510000
  H         3.2658465000       15.2684715000       -2.4152400000
  O        20.3176745000       20.4162985000        7.8574590000
  H        19.6988715000       19.7316595000        7.5810180000
  H        21.1621495000       19.8940225000        7.8941810000
  O        10.5174185000        9.3644945000      -10.2211490000
  H        11.1997895000        9.5103605000      -10.9020780000