#     Step Nr.          Time[fs]        Kin.[a.u.]          Temp[K]            Pot.[a.u.]        Cons Qty[a.u.]        UsedTime[s]
         0            0.000000         3.844830508       300.000000000     -1262.932143432     -1259.086837901         0.000000000
         1            1.000000         3.786908589       295.480535313     -1262.872154985     -1259.083924514        36.431678088
         2            2.000000         3.720358052       290.287806773     -1262.789495477     -1259.066993933        10.804949280
         3            3.000000         3.790029956       295.724085678     -1262.874391617     -1259.081417230        10.844504766
         4            4.000000         3.861682546       301.314911337     -1262.941419314     -1259.075987087        10.849122824
         5            5.000000         3.873665835       302.249929638     -1262.945347919     -1259.067116380        10.907765785
         6            6.000000         3.863870798       301.485653761     -1262.931034283     -1259.061776199        10.304036096
         7            7.000000         3.850184943       300.417789679     -1262.900973224     -1259.044578094        10.272347338
         8            8.000000         3.900426940       304.338014257     -1262.955626354     -1259.048159632        10.279962525
         9            9.000000         3.903026178       304.540824628     -1262.951923775     -1259.041012397        10.343859494
        10           10.000000         3.833238090       299.095480179     -1262.856539850     -1259.014568438        10.296611018
        11           11.000000         3.845348874       300.040446419     -1262.862092346     -1259.007168504        10.281468986
        12           12.000000         3.915377766       305.504580033     -1262.930396728     -1259.004591648        10.344989289
        13           13.000000         3.971179137       309.858585083     -1262.981933017     -1258.999446158        10.278992925
        14           14.000000         3.948300387       308.073428341     -1262.951065012     -1258.990548756        10.258604191
        15           15.000000         3.854082430       300.721898271     -1262.831710557     -1258.964498254        10.285190526
        16           16.000000         3.835958376       299.307735504     -1262.813719271     -1258.963726286        10.291636197
        17           17.000000         3.852954808       300.633913448     -1262.834824389     -1258.966931172        10.277819974
        18           18.000000         3.821278064       298.162277030     -1262.792185036     -1258.955065995        10.330168588
        19           19.000000         3.797775774       296.328467449     -1262.771580267     -1258.957071827        10.277180169
        20           20.000000         3.810651014       297.333081826     -1262.784146182     -1258.955880416        10.262823474
        21           21.000000         3.883667454       303.030324381     -1262.872387521     -1258.970218545        10.279416781
        22           22.000000         3.905266167       304.715603862     -1262.906186532     -1258.981514548        10.321050607
        23           23.000000         3.812518193       297.478771926     -1262.805912705     -1258.973083375        10.286677638
        24           24.000000         3.763500967       293.654112331     -1262.765192883     -1258.980497322        10.282415247
        25           25.000000         3.785423622       295.364668028     -1262.799440294     -1258.991956015        10.287265997
        26           26.000000         3.826373980       298.559895325     -1262.850117584     -1259.000820945        10.275439451
        27           27.000000         3.850122253       300.412898161     -1262.886749033     -1259.012838885        10.286608465
        28           28.000000         3.831018201       298.922269256     -1262.868492206     -1259.012820354        10.271204278
        29           29.000000         3.867570758       301.774349949     -1262.912426023     -1259.019335256        10.268885517
        30           30.000000         3.926558232       306.376956555     -1262.991133698     -1259.038173144        10.295673741
        31           31.000000         3.882419298       302.932934760     -1262.949079457     -1259.039359899        10.281789569
        32           32.000000         3.810274649       297.303715260     -1262.875513205     -1259.037046898        10.299360862
        33           33.000000         3.792816626       295.941520822     -1262.855153384     -1259.033269573        10.260275427
        34           34.000000         3.853435637       300.671431095     -1262.918391704     -1259.035016819        10.254614074
        35           35.000000         3.924326799       306.202844875     -1263.006116619     -1259.050961505        10.886887087
        36           36.000000         3.884025368       303.058251325     -1262.962098084     -1259.046338580        10.826403433
        37           37.000000         3.831576196       298.965807831     -1262.897931581     -1259.033718655        10.256420324
        38           38.000000         3.846457500       300.126949057     -1262.917017984     -1259.037026564        10.232566020
        39           39.000000         3.862895596       301.409561795     -1262.917971594     -1259.020640918        10.817989962
        40           40.000000         3.845747483       300.071548619     -1262.894913163     -1259.013826812        10.237326642
        41           41.000000         3.795334514       296.137983630     -1262.830584747     -1258.999016211        10.822256187
        42           42.000000         3.814736378       297.651849941     -1262.841493831     -1258.989640078        10.810863132
        43           43.000000         3.913929226       305.391555054     -1262.946836724     -1258.994897125        10.804031136
        44           44.000000         3.939308921       307.371852608     -1262.964282795     -1258.986043985        10.840211915
        45           45.000000         3.877644421       302.560366168     -1262.891252258     -1258.973745840        10.230227638
        46           46.000000         3.818957690       297.981225554     -1262.826405086     -1258.966661109        10.237965126
        47           47.000000         3.830288241       298.865312728     -1262.841717943     -1258.969728364        10.843712330
        48           48.000000         3.895567548       303.958851216     -1262.916581753     -1258.978390371        10.809929267
        49           49.000000         3.898240540       304.167416323     -1262.916110299     -1258.974306804        10.787693605
        50           50.000000         3.877400084       302.541301272     -1262.887894761     -1258.965984789        10.862756923
        51           51.000000         3.923629591       306.148443930     -1262.942331761     -1258.973234146        10.804977305
        52           52.000000         3.976812312       310.298123968     -1263.000475890     -1258.977209069        10.809834413
        53           53.000000         3.973495685       310.039337980     -1263.007297168     -1258.986328755        10.226839650
        54           54.000000         3.883333102       303.004235994     -1262.915996668     -1258.984160889        10.231335344
        55           55.000000         3.815008924       297.673115823     -1262.847913398     -1258.983384686        10.293449797
        56           56.000000         3.867745467       301.787981959     -1262.919204289     -1259.000927325        10.229328364
        57           57.000000         3.919629464       305.836326668     -1262.985050493     -1259.013859865        10.247936904
        58           58.000000         3.896354643       304.020265744     -1262.964977486     -1259.016015468        10.228859657
        59           59.000000         3.838407309       299.498817976     -1262.912529357     -1259.020470398        10.234535469
        60           60.000000         3.804803257       296.876799782     -1262.884428078     -1259.024942522        10.244676659
        61           61.000000         3.820757771       298.121680229     -1262.919127675     -1259.042666709        10.783858897
        62           62.000000         3.793346629       295.982875227     -1262.907477295     -1259.057414638        10.788780292
        63           63.000000         3.716151430       289.959577297     -1262.825177499     -1259.051323085        10.799041236
        64           64.000000         3.710684209       289.532987315     -1262.825812032     -1259.056472664        10.800939579
        65           65.000000         3.764522076       293.733786255     -1262.885221636     -1259.061111481        10.842188563
        66           66.000000         3.801754229       296.638893799     -1262.928974345     -1259.066704732        10.820751386
        67           67.000000         3.774169354       294.486532935     -1262.901306465     -1259.065704109        10.272876948
        68           68.000000         3.710518366       289.520047080     -1262.814284483     -1259.041441957        10.246803127
        69           69.000000         3.720173137       290.273378438     -1262.820371024     -1259.037014041        10.832800789
        70           70.000000         3.757480476       293.184352409     -1262.855959186     -1259.034454134        10.824121255
        71           71.000000         3.751358301       292.706658402     -1262.837863716     -1259.021655480        10.870268846
        72           72.000000         3.746116931       292.297690829     -1262.826076228     -1259.014304233        10.259649061
        73           73.000000         3.768528455       294.046391377     -1262.838917698     -1259.003946597        10.261803476
        74           74.000000         3.818545378       297.949054168     -1262.885152397     -1258.999384325        10.825945320
        75           75.000000         3.835254821       299.252839280     -1262.900318028     -1258.997060385        10.829341190
        76           76.000000         3.781895195       295.089355938     -1262.846950400     -1258.996280327        10.850809274
        77           77.000000         3.757616497       293.194965747     -1262.813767473     -1258.986624238        10.871333817
        78           78.000000         3.800017111       296.503351912     -1262.865107957     -1258.994826655        11.445488693
        79           79.000000         3.852656777       300.610659068     -1262.916375634     -1258.992717252        11.410798965
        80           80.000000         3.867038780       301.732841381     -1262.935510685     -1258.996726458        11.443153381
        81           81.000000         3.846258930       300.111455256     -1262.907866598     -1258.989116059        12.082160110
        82           82.000000         3.873706148       302.253075076     -1262.932155080     -1258.985209643        12.731554234
        83           83.000000         3.919877567       305.855685297     -1262.986963659     -1258.993086274        13.159483230
        84           84.000000         3.890451617       303.559671259     -1262.950901165     -1258.985674885        12.689419031
        85           85.000000         3.829967731       298.840304344     -1262.888391803     -1258.982875707        12.648390573
        86           86.000000         3.810033065       297.284865236     -1262.867724533     -1258.981379993        13.395496670
        87           87.000000         3.854031790       300.717947025     -1262.898318786     -1258.967215942        12.780263428
        88           88.000000         3.903157543       304.551074595     -1262.968419121     -1258.987420295        13.155489793
        89           89.000000         3.862136155       301.350305071     -1262.924476627     -1258.983719242        13.879289035
        90           90.000000         3.798537219       296.387880649     -1262.879180513     -1259.001250284        13.348314060
        91           91.000000         3.799069664       296.429425663     -1262.886028596     -1259.006808612        12.544258278
        92           92.000000         3.806635459       297.019760772     -1262.893536600     -1259.006002113        12.058318496
        93           93.000000         3.778047081       294.789099771     -1262.885126292     -1259.025442468        11.048201201
        94           94.000000         3.717726817       290.082499778     -1262.819021260     -1259.018942882        10.854929684
        95           95.000000         3.692541089       288.117336821     -1262.768226520     -1258.992651323        10.889478324
        96           96.000000         3.737300746       291.609791714     -1262.831940562     -1259.010949577        10.858720658
        97           97.000000         3.757551088       293.189862092     -1262.855840643     -1259.013959361        10.908683689
        98           98.000000         3.724131709       290.582253313     -1262.834784885     -1259.025702757        10.845602667
        99           99.000000         3.693590342       288.199206765     -1262.808869486     -1259.029737328        10.844673494
       100          100.000000         3.699713026       288.676940478     -1262.804773845     -1259.018958060        10.862968145
       101          101.000000         3.735685855       291.483786873     -1262.820644369     -1258.998319218        10.289847352
       102          102.000000         3.742472221       292.013305622     -1262.847121508     -1259.017492480        10.845602697
       103          103.000000         3.729691555       291.016070533     -1262.837174574     -1259.019829628        10.871064261
       104          104.000000         3.762744355       293.595076305     -1262.867208786     -1259.016334583        10.836490236
       105          105.000000         3.804690928       296.868035093     -1262.885467705     -1258.992181725        10.867805880
       106          106.000000         3.807695621       297.102481856     -1262.860778833     -1258.964029142        10.326286485
       107          107.000000         3.779258070       294.883589413     -1262.831492176     -1258.962730668        10.847500931
       108          108.000000         3.763075525       293.620916469     -1262.815829326     -1258.962816194        10.860673299
       109          109.000000         3.805399078       296.923289817     -1262.842314686     -1258.946556965        10.270859195
       110          110.000000         3.834709401       299.210281910     -1262.874101967     -1258.948616976        10.281954573
       111          111.000000         3.815983392       297.749150479     -1262.818462451     -1258.911289042        10.257662717
       112          112.000000         3.823218617       298.313692313     -1262.825276500     -1258.910459017        10.270667365
       113          113.000000         3.854407763       300.747282966     -1262.858743711     -1258.912329728        10.276177898
       114          114.000000         3.862155152       301.351787291     -1262.865399082     -1258.910826751        10.302430974
       115          115.000000         3.816440751       297.784836727     -1262.809936262     -1258.900667033        10.820119144
       116          116.000000         3.748757473       292.503724049     -1262.721983084     -1258.879997745        10.831645299
       117          117.000000         3.752869029       292.824535749     -1262.726869062     -1258.880392868        10.270733567
       118          118.000000         3.803790845       296.797804495     -1262.795267810     -1258.897504351        10.265194517
       119          119.000000         3.808980548       297.202740639     -1262.801467545     -1258.898155122        10.270152349
       120          120.000000         3.780405547       294.973123438     -1262.777439613     -1258.902351573        10.318578456
       121          121.000000         3.760940168       293.454301314     -1262.755382493     -1258.899423464        10.269711783
       122          122.000000         3.779339704       294.889959050     -1262.778166647     -1258.903486906        10.246075785
       123          123.000000         3.789968422       295.719284376     -1262.790042046     -1258.904423841        10.264967734
       124          124.000000         3.732871804       291.264215370     -1262.700524636     -1258.871707132        10.274764299
       125          125.000000         3.690987118       287.996085390     -1262.659422225     -1258.872218201        10.264043566
       126          126.000000         3.720921717       290.331787744     -1262.691907429     -1258.874525607        10.256464599
       127          127.000000         3.773116813       294.404406503     -1262.738810105     -1258.869010500        10.273259781
       128          128.000000         3.792748167       295.936179180     -1262.756732252     -1258.867090958        10.811611414
       129          129.000000         3.758686986       293.278492625     -1262.743906665     -1258.888127738        10.261428943
       130          130.000000         3.741144328       291.909694327     -1262.708427573     -1258.870009858        10.834328476
       131          131.000000         3.776525293       294.670359461     -1262.758221776     -1258.884259845        10.827054720
       132          132.000000         3.784390737       295.284075277     -1262.764294674     -1258.882316834        10.827499697
       133          133.000000         3.753662978       292.886485076     -1262.726551157     -1258.875163488        10.245690605
       134          134.000000         3.746110357       292.297177927     -1262.726409322     -1258.882454277        10.240892006
       135          135.000000         3.788414971       295.598073532     -1262.778812501     -1258.892450136        10.253723647
       136          136.000000         3.847184896       300.183705469     -1262.854307342     -1258.909081470        10.250568179
       137          137.000000         3.839512931       299.585086194     -1262.843312189     -1258.905664973        10.275901897
       138          138.000000         3.791810335       295.863003111     -1262.785067613     -1258.895032104        10.234790498
       139          139.000000         3.788329058       295.591370019     -1262.777093994     -1258.890458571        10.248877015
       140          140.000000         3.819213998       298.001224457     -1262.803933820     -1258.886342050        10.228443556
       141          141.000000         3.845536057       300.055051775     -1262.835202823     -1258.891222015        10.245468501
       142          142.000000         3.832498739       299.037790905     -1262.815906405     -1258.884896412        10.222439585
       143          143.000000         3.823071103       298.302182261     -1262.793148550     -1258.871501993        10.284811160
       144          144.000000         3.868100807       301.815708047     -1262.845173750     -1258.878435729        10.238642903
       145          145.000000         3.885500777       303.173372824     -1262.867323608     -1258.883119087        10.298499659
       146          146.000000         3.841865473       299.768647660     -1262.818321224     -1258.877678765        10.241773874
       147          147.000000         3.802833958       296.723141592     -1262.777596394     -1258.875913126        10.250677327
       148          148.000000         3.806863565       297.037559118     -1262.771124434     -1258.865346495        10.806004224
       149          149.000000         3.856589663       300.917529766     -1262.837260762     -1258.881697332        10.793911407
       150          150.000000         3.876895134       302.501901639     -1262.855006574     -1258.879075802        10.812501388
       151          151.000000         3.848963178       300.322459170     -1262.814413255     -1258.866347066        10.835034782
       152          152.000000         3.852648295       300.609997213     -1262.828416062     -1258.876595604        10.827736350
       153          153.000000         3.865254865       301.593648180     -1262.845183423     -1258.880684910        10.223456208
       154          154.000000         3.839724270       299.601576303     -1262.829466171     -1258.890423333        10.247539144
       155          155.000000         3.794247779       296.053189135     -1262.775419584     -1258.881780066        10.799593672
       156          156.000000         3.768044788       294.008652368     -1262.748639917     -1258.881139958        10.237167938
       157          157.000000         3.804873741       296.882299419     -1262.790065127     -1258.885685933        10.222567160
       158          158.000000         3.854277116       300.737088995     -1262.855308796     -1258.901482706        10.262687463
       159          159.000000         3.839147417       299.556566342     -1262.837967052     -1258.899226370        10.277102992
       160          160.000000         3.794154628       296.045920867     -1262.789790872     -1258.896000595        10.262354562
       161          161.000000         3.779943301       294.937055799     -1262.767636589     -1258.888024541        10.246028414
       162          162.000000         3.797086200       296.274662184     -1262.789773949     -1258.892997718        10.239832195
       163          163.000000         3.788804868       295.628495997     -1262.783270660     -1258.894764367        10.239810282
       164          164.000000         3.747211009       292.383058339     -1262.735409887     -1258.888497869        10.278203972
       165          165.000000         3.753850309       292.901101992     -1262.743192340     -1258.889659404        10.230674185
       166          166.000000         3.797537840       296.309902247     -1262.793449953     -1258.896265192        10.262368616
       167          167.000000         3.812260709       297.458681286     -1262.801483628     -1258.889622393        10.247409161
       168          168.000000         3.775511262       294.591237842     -1262.749087794     -1258.874030384        10.243624989
       169          169.000000         3.724205730       290.588028931     -1262.681347149     -1258.857663411        10.240761634
       170          170.000000         3.744987657       292.209577194     -1262.709143431     -1258.864768083        10.270753510
       171          171.000000         3.808053012       297.130367916     -1262.773575820     -1258.866245994        10.285944752
       172          172.000000         3.824316331       298.399343455     -1262.784621302     -1258.861149767        10.237327946
       173          173.000000         3.820863683       298.129944165     -1262.778269778     -1258.858378507        10.249807619
       174          174.000000         3.832293342       299.021764486     -1262.790671832     -1258.859484378        10.307331033
       175          175.000000         3.850790058       300.465004901     -1262.808722648     -1258.859176223        10.245145664
       176          176.000000         3.847068284       300.174606545     -1262.810423326     -1258.864737525        10.278518924
       177          177.000000         3.790543764       295.764176558     -1262.748738150     -1258.859716999        10.233585877
       178          178.000000         3.763257672       293.635128831     -1262.730716486     -1258.869131577        10.239571171
       179          179.000000         3.809382864       297.234132104     -1262.784998013     -1258.877454552        10.258605320
       180          180.000000         3.846943671       300.164883401     -1262.819495457     -1258.874568973        10.240269471
       181          181.000000         3.840741729       299.680965473     -1262.842028857     -1258.903485659        10.254944324
       182          182.000000         3.804857359       296.881021210     -1262.812442353     -1258.909967662        10.253754605
       183          183.000000         3.793919787       296.027596926     -1262.811980949     -1258.920636489        10.258067716
       184          184.000000         3.816766127       297.810224834     -1262.840119548     -1258.926133529        10.241611555
       185          185.000000         3.793059821       295.960496530     -1262.816493566     -1258.926428064        10.254733568
       186          186.000000         3.743844386       292.120371362     -1262.759667444     -1258.919043234        10.253477767
       187          187.000000         3.746546203       292.331185598     -1262.759562800     -1258.916482916        10.281431228
       188          188.000000         3.807115763       297.057237342     -1262.822842261     -1258.919462617        10.238305449
       189          189.000000         3.863193783       301.432828456     -1262.884103650     -1258.924931602        10.246295763
       190          190.000000         3.840767850       299.683003608     -1262.855234925     -1258.918778191        10.257352447
       191          191.000000         3.801122342       296.589589593     -1262.801657807     -1258.905139195        10.296676548
       192          192.000000         3.828440175       298.721113978     -1262.830203507     -1258.906670796        10.230623683
       193          193.000000         3.862568380       301.384030186     -1262.854794641     -1258.897447862        10.241352201
       194          194.000000         3.856446849       300.906386459     -1262.838926624     -1258.888019146        10.280871963
       195          195.000000         3.822178921       298.232568048     -1262.798728960     -1258.882409052        10.247525800
       196          196.000000         3.805696664       296.946509513     -1262.770166143     -1258.870655401        10.252787778
       197          197.000000         3.850594811       300.449770386     -1262.833620470     -1258.889551636        10.273692057
       198          198.000000         3.864200508       301.511379997     -1262.847268313     -1258.889941998        10.267927341
       199          199.000000         3.804831212       296.878981048     -1262.776211845     -1258.878605003        10.237583287
       200          200.000000         3.773756004       294.454280563     -1262.729938937     -1258.863766810        10.233110432
       201          201.000000         3.801091928       296.587216522     -1262.758474467     -1258.865345037        10.665868908
       202          202.000000         3.844969759       300.010865282     -1262.803630584     -1258.867020996        10.255768018
       203          203.000000         3.842141953       299.790220489     -1262.805746938     -1258.872373676        10.244581236
       204          204.000000         3.787255045       295.507568186     -1262.741158224     -1258.863086938        10.231471404
       205          205.000000         3.774265143       294.494007051     -1262.732102680     -1258.867451122        10.260038566
       206          206.000000         3.797480532       296.305430693     -1262.759780198     -1258.872365374        10.246733231
       207          207.000000         3.788731765       295.622791956     -1262.755680782     -1258.877487070        10.235818010
       208          208.000000         3.760827810       293.445534367     -1262.726929292     -1258.877130806        10.247960266
       209          209.000000         3.753390673       292.865238035     -1262.717660149     -1258.875814020        10.255690731
       210          210.000000         3.811468863       297.396896003     -1262.781419568     -1258.882041480        10.278721711
       211          211.000000         3.867580324       301.775096402     -1262.847899619     -1258.892983157        10.248878440
       212          212.000000         3.833288203       299.099390290     -1262.815244112     -1258.895204554        10.237770224
       213          213.000000         3.790177779       295.735619885     -1262.771031857     -1258.894696792        10.281541383
       214          214.000000         3.800563696       296.546000265     -1262.764612994     -1258.878506223        10.252245542
       215          215.000000         3.844557595       299.978705442     -1262.820560869     -1258.891100732        10.866254833
       216          216.000000         3.877750081       302.568610474     -1262.857467875     -1258.895477205        10.249324497
       217          217.000000         3.860178649       301.197566995     -1262.835113889     -1258.891367659        10.239581220
       218          218.000000         3.858094473       301.034945358     -1262.831933011     -1258.890954212        10.244017918
       219          219.000000         3.902017127       304.462091536     -1262.886783593     -1258.902581207        10.267000593
       220          220.000000         3.914732567       305.454237193     -1262.894180733     -1258.897972620        10.286180824
       221          221.000000         3.888043658       303.371785781     -1262.859079738     -1258.890272360        10.269543506
       222          222.000000         3.861700378       301.316302748     -1262.827777421     -1258.886028295        10.273754789
       223          223.000000         3.885610103       303.181903186     -1262.852499987     -1258.887568302        10.302191671
       224          224.000000         3.954847489       308.584278083     -1262.932163570     -1258.898738573        10.261087712
       225          225.000000         3.959907317       308.979080511     -1262.937293436     -1258.899556703        10.264690373
       226          226.000000         3.917340909       305.657757938     -1262.887335914     -1258.892905642        10.325884858
       227          227.000000         3.901149764       304.394413916     -1262.874060462     -1258.896558228        10.270205030