    2699
 i =     2010, time =     2010.000, E =     -1262.9323100460
  C        11.1899478859       11.6807666142       12.4359753083
  O        10.1554493096       11.2441261283       12.9724305009
  O        12.3498080375       11.3813878913       12.5538089268
  N        10.7415300304       12.8834492147       11.2184074925
  H         9.7044761623       12.8564336986       11.1909680036
  H        11.0264127383       13.8528005199       11.4598088094
  H        11.1477452481       12.8062119021       10.3223624246
  N        11.7098419993       15.5888928876       11.3888149401
  H        12.0500334797       15.4761978039       12.3486488360
  H        12.4449423668       15.7487075461       10.6818117588
  H        11.0997405095       16.4305017479       11.3822455078
  O        31.6996032592       15.6238840834        2.2654132239
  H        32.2127806422       14.9376481340        1.6612225439
  H        31.1075322899       14.9519461940        2.6654624007
  O         0.9881310538       20.6647071095        2.6523585725
  H         0.3433420352       20.0935375724        2.1760763785
  H         1.0636945025       21.4413236107        2.0079197447
  O         2.8450166720        8.2306774469       -6.6271227780
  H         3.2686724432        9.0641245282       -6.4141502390
  H         3.6317823389        7.6487535108       -6.6050971116
  O        30.0832628993       25.5964612515       -5.4491207042
  H        29.4611281550       25.1798892057       -4.7846601079
  H        29.4372628170       25.7663823245       -6.1611358635
  O        26.0573942055       11.0263475825       10.1164991663
  H        25.3877351940       11.2209683176        9.4209262232
  H        26.5920662893       11.8555198926       10.1184404040
  O        21.5283232209       -0.8355064805        9.1473347212
  H        20.6623249861       -0.5956786033        8.7874492948
  H        21.2533406186       -1.7127348694        9.5799311114
  O        -1.2512224793       20.6328563191       -4.5049805499
  H        -0.5333721877       21.0855616188       -4.8433453238
  H        -1.1992486789       20.8627783784       -3.5260821303
  O        -0.0097854239       11.7048094385        1.2509547481
  H        -0.7276162976       11.7192825493        0.5722729264
  H         0.4979209683       12.4508367155        0.8775101637
  O        28.8117377146        3.3887130980       -2.8691844984
  H        27.9406200890        3.8044386517       -3.2033465424
  H        28.6618653620        3.5038425185       -1.9148466369
  O        20.8080738320       25.7176376772       -0.7817944932
  H        20.6389562553       26.1779616895       -1.5899916787
  H        20.2622706251       26.3120928592       -0.1607104120
  O         3.6752003217       11.3462935499        3.2187641963
  H         3.1252023778       11.5027948940        4.0009171195
  H         4.3450156766       10.6967007562        3.5194612696
  O         7.3544461109       24.0668073693      -13.3034077424
  H         7.8121473335       23.3143885891      -13.6131893415
  H         6.4972413621       24.0004622279      -13.7242869504
  O        24.8598069953        4.2313869504       -1.9361828701
  H        24.2584534841        4.9624146157       -2.0348085745
  H        24.2849995550        3.5479131560       -1.5184611325
  O         4.8320595160        0.7026415095       -8.4749097170
  H         4.5430559708        1.1410592037       -9.3081549568
  H         4.0497928759        0.7578301794       -7.9130638239
  O        23.6446122751        2.2631027979       -0.5144653578
  H        23.8812686439        1.9948423573        0.4192177299
  H        22.8019161517        1.6885999423       -0.5779024364
  O        16.0604421231        2.4020474593      -10.3615722326
  H        16.4400958349        3.2775908957      -10.2160884524
  H        15.3212086898        2.4485406549       -9.7134547874
  O         2.2872000253       21.2982214260       -0.9391533955
  H         1.5756480547       20.7761686655       -1.3390352148
  H         1.7247860796       22.0495987583       -0.6008563848
  O        27.1029055180       -0.8529522899        0.2461173426
  H        26.6855922368       -0.4317309844       -0.5057310357
  H        28.0464597340       -0.6273419326        0.1565474988
  O        23.4160375076       28.5937890261       -1.8332565303
  H        22.9647769634       27.8088424442       -2.1923348618
  H        24.2126159016       28.6541415816       -2.4046570564
  O        19.6280782357       18.5920702663       -9.0993188627
  H        18.7581568668       18.3051238723       -9.4647551750
  H        19.3311391705       19.0562948768       -8.2927045791
  O        11.9649063419       13.9898106848      -12.9995992826
  H        12.2814543991       14.8758117641      -13.3036288681
  H        11.2388886716       14.2258640992      -12.4099514679
  O        17.1868975365       29.0968182670      -13.6339609022
  H        17.3266708461       29.3454815074      -12.6721943516
  H        18.0750123331       29.1738336538      -14.0105467315
  O        23.5449015963        5.0284931889       -4.8741114762
  H        23.3581222673        5.4685164036       -4.0034824095
  H        23.0149993772        4.2159640415       -4.7323401544
  O        21.0533868193        0.7732827769       -6.8766578234
  H        21.8710962450        1.2570363899       -7.0229462386
  H        20.9022309235        0.8639711022       -5.9325278332
  O        -4.6638382928        4.8796030470       -9.4820351716
  H        -4.4906534355        5.7802366542       -9.1001909526
  H        -4.6289672234        5.0554361399      -10.4611898935
  O        21.3343832006       14.2453295662       -0.6386128328
  H        21.7577278704       13.4758974548       -0.2220309143
  H        21.4458696351       14.9518747589        0.0236821515
  O        18.2167939867        8.4496754635        3.5805558986
  H        18.9074429633        9.0542480468        3.1292734684
  H        17.5238433596        8.5833373652        2.8625811137
  O        -0.5269114969       24.2405065033       -2.1589138952
  H        -0.2983326422       25.0534892797       -1.6775943199
  H         0.2962712890       23.9159094675       -2.5097791814
  O        26.2143213036        7.6472627690      -13.1045154958
  H        25.4895340813        8.2790198305      -12.9043765939
  H        25.7040376249        6.9698787574      -13.5972599018
  O        17.7025501715       -0.3222363492       -1.1018852606
  H        17.8263232202        0.3194053908       -1.8313242702
  H        16.9571630848       -0.8507316250       -1.4490898172
  O        23.2773508039       -1.1217334915        5.6284047684
  H        23.5783429018       -2.0602017074        5.5799075143
  H        22.8330219136       -1.0462576164        4.7246804958
  O         1.3747764852        9.0492003794       -9.0572481428
  H         1.1035477442        9.9538194603       -9.0685579914
  H         1.5317089047        8.8217466010       -8.1262746484
  O        30.2194935007       -1.9946748335       10.4561203261
  H        31.1802552582       -2.1130081437       10.6020783462
  H        29.8984611516       29.9536269357       11.3885835910
  O         9.1634072139       -0.1558823963        3.7468356852
  H         8.4715923253        0.4675502243        3.9431828142
  H         9.8338808948        0.3485450897        3.2179358702
  O         8.3321765063        3.4534288927       -0.6309144057
  H         8.8216720515        3.0708527543       -1.3828937293
  H         8.6895359715        2.8536059440        0.0623798229
  O        12.3482525725       -3.2988759649      -12.3280095262
  H        11.5981433331       -2.7440681726      -12.1184442028
  H        13.0908041477       -2.7122052858      -12.0669270778
  O        28.9790207539       18.4818390675        8.2200255501
  H        29.8867563425       18.7799873202        8.2192528658
  H        28.4895381884       19.2924317700        8.4746711018
  O        27.4678308912        9.6351621011       -0.2759991835
  H        27.1520420307        9.3108892845        0.6125506941
  H        28.3899004363        9.2850504186       -0.2546804578
  O        26.5891104828        4.1376772543       -4.1835987808
  H        26.2511989097        4.7002767543       -4.8613849939
  H        25.8924756356        4.1111191155       -3.5241687319
  O         4.3763843776        2.4752726080      -10.6758381460
  H         3.4503983803        2.4186293150      -11.1163732687
  H         4.8364832946        1.9674846963      -11.3959496701
  O        11.7296609435        4.5918447268        3.5522888831
  H        12.2774181792        5.1409561094        4.1265639401
  H        10.8286137484        4.9560340728        3.8101479953
  O         9.5757131454        0.0388796646       -0.6128566916
  H        10.0241082204        0.6211479773        0.0004913868
  H        10.2003003421       -0.6693056982       -0.7527689525
  O         7.8691553523        1.9795064727      -12.2880734852
  H         7.0528654487        2.1861627879      -12.6993612541
  H         7.7969748218        1.0322586728      -12.1371650690
  O        28.3644599102        6.3914280810       -1.6300354345
  H        29.1205583802        6.8968646230       -1.2209243319
  H        28.7744804592        6.1842828637       -2.4560008476
  O        15.7392257703       13.1275609869        2.9451969276
  H        15.2807515201       12.9294246015        2.0280183372
  H        16.0347885954       14.0644034077        2.8616497154
  O         6.4595374487       12.1065293551      -10.0572254571
  H         6.6888051406       12.6096334262      -10.8684179514
  H         6.1031761200       11.2889877192      -10.4889967622
  O         8.8907944842       13.1866184508       -9.4229556506
  H         8.1488838428       12.5246278374       -9.5319008022
  H         9.5169850722       12.6254444014       -8.9106550541
  O        30.0897107498        5.8627959767        7.1136686187
  H        29.7273153768        5.0043406429        7.4072342172
  H        30.9271716728        5.5591560132        6.6695533006
  O        22.0632005533       12.8205792955        7.2857456611
  H        22.7055607602       13.4045781943        6.8254481034
  H        22.5686094308       12.5070929081        8.0098843943
  O        13.8404554640       -0.3587626839       -8.2135368883
  H        14.3578354871       -0.3416782887       -9.0478654625
  H        13.3045341040        0.4417868553       -8.2751340478
  O        19.6202936715       17.1729496350       -0.0940022656
  H        18.7894902170       17.5000905739        0.4347769518
  H        19.0892745685       16.8521303949       -0.8635995128
  O         9.6282477568       11.0960142560        9.1795063454
  H        10.1750043342       10.4496854186        9.7377344894
  H         9.7548258428       10.6857469873        8.2610029622
  O         8.1725902275       20.4209484433        5.8706354198
  H         7.6053680720       20.8375189037        5.2499002682
  H         8.3024429703       21.1364399207        6.5339495827
  O         9.1707358840       24.7100658953       -4.6737864008
  H         8.8521004070       24.6967165158       -5.6198472150
  H        10.1219896851       24.4776677136       -4.8007690473
  O        10.8292436727       -0.0744520925      -10.0852772469
  H        10.2686576599       -0.6453829489      -10.6982362261
  H        11.6839186753       -0.5451782613      -10.2284125260
  O        15.4514096596       20.3059656658        3.5093586461
  H        15.2248937450       19.3801006698        3.5718883118
  H        16.3663637593       20.2688241307        3.8875101647
  O         5.7459734794       -0.4140389221        8.2704795893
  H         5.2395856941        0.4156735827        8.5132618157
  H         5.2748887618       -0.6387801582        7.4303316886
  O        18.8438356373        0.7670954079      -13.8284523773
  H        19.7795925782        1.1009643765      -13.6213321083
  H        18.7224781652        1.1072850682      -14.7147078169
  O        30.6328052555       22.5733156236      -11.0301358687
  H        31.1548587143       22.6181958287      -11.8999395592
  H        30.6954296673       21.5997094677      -10.8815963103
  O         9.0142868220       -2.1663198877        5.9233754725
  H         9.9512688729       29.6612963279        6.1342393431
  H         9.1833182054       -1.3166039589        5.4126755432
  O         4.8331029378       17.9523590525       -2.6205882413
  H         3.9304423672       17.5865500941       -2.8335086039
  H         4.6832508579       18.9406313279       -2.5939866677
  O        25.7348660952       19.3963618209        7.8823463036
  H        25.9364290263       19.8888737859        8.7125547508
  H        24.7591701243       19.2806613914        8.0200619160
  O        11.2786322257        7.6945423780        0.9824877263
  H        11.1468487927        7.2573563216        0.0820674559
  H        10.2430292108        7.8304439125        1.0800001469
  O        29.3407731987        6.8420824153       11.4628319463
  H        28.7884542155        6.0256352697       11.1949777598
  H        28.6119496505        7.5039413559       11.3370938738
  O         6.8063417015       -3.5853992919       -1.8602881078
  H         7.0254937355       -4.4876494961       -2.2061275284
  H         6.8642681173       -3.8338321316       -0.9023240724
  O        18.0621594468       21.1721403546        4.6271641397
  H        19.0082921996       21.2122287601        4.6143141133
  H        17.7386063907       22.0417589853        4.3891474204
  O        26.9524906647       26.4061048809        2.4372571889
  H        27.1643096067       26.4431020448        3.3819841575
  H        26.8910534054       27.3304082038        2.1670485260
  O        21.7946118637        9.9773597772       -1.1760059084
  H        22.4255529611        9.2981091995       -1.1434266128
  H        20.9819540303        9.5305248417       -0.8386714368
  O        15.7598333766        0.5088009422       12.2625924186
  H        15.4651621960        1.1613748070       12.9199014872
  H        15.0727996557        0.6951152290       11.5558876934
  O         7.8249017026       27.0698293310       13.0504464081
  H         8.0280301434       27.9919195511       13.3798857425
  H         8.6579594853       26.9652237533       12.5257273562
  O         1.1614838926        1.2419076004        0.4007168845
  H         1.5585212959        1.1316135262       -0.4762236521
  H         0.5682099560        0.4339733277        0.3626155433
  O         9.3591815377       10.8184780342      -12.9685454654
  H        10.2597793101       11.1376509094      -12.7690463430
  H         9.5676806543        9.9236120420      -13.2823687108
  O         4.9253322925       -2.1809868555       -6.3441759984
  H         5.3262681657       -1.3017336859       -6.2798281660
  H         5.1265824435       -2.4040791445       -5.3826376683
  O        27.1937749721       13.2743333485      -14.1285091321
  H        27.0497308994       12.3197897207      -13.8166249828
  H        26.2438412917       13.5558666517      -14.0384159949
  O        17.3921553644       15.7530167087        3.7494063864
  H        17.5603947062       16.6670270291        3.3078159515
  H        18.3365196703       15.5401259735        3.9631436138
  O        15.2073471742        9.4878270722       -0.6638322048
  H        15.2417676190       10.3095974249       -1.1075950323
  H        14.4153454479        9.5048270786       -0.0352789427
  O         9.1273151630       15.6606706984       -8.0270922215
  H         8.2371367664       16.0630403356       -8.1461500682
  H         8.9884166972       14.9007288992       -8.6261610189
  O        21.4984815865       -1.5042290757       -1.9620196458
  H        22.1720668419       -2.1717857867       -2.1398784531
  H        20.7788465635       -2.0292820538       -1.6094273068
  O        24.6688547343        5.4354899263      -13.9176625827
  H        24.0111470233        5.9146357347      -13.3416443160
  H        24.1208961008        4.7096450366      -14.1998532236
  O        11.8432676494       20.0491874793        1.8990391145
  H        12.1958374192       19.8113882710        2.8286626892
  H        10.9385511734       20.4478389519        2.2139974861
  O        25.2867870566       -0.7853318647       -7.2259928603
  H        26.0879721109       -0.4987729706       -7.7131405286
  H        25.1611589404       -1.6934261277       -7.6159351641
  O        11.7544616968       16.3571254267      -10.2253320771
  H        11.0821599195       15.6893507467      -10.4148829984
  H        11.3154153761       17.1192358229      -10.6399133017
  O        22.3094000873       11.7709984129       11.8950718645
  H        22.7465479856       10.9833596031       11.4148251171
  H        21.5047021778       11.9685133622       11.3640569731
  O        17.4953800673       16.4322785296        6.4841966188
  H        16.7472216864       16.7241962278        7.0093329175
  H        17.1459307294       15.5760561043        6.2103824104
  O        10.9463896839        2.5016006833        6.0616735452
  H        10.3283925940        2.6695226804        6.7865924447
  H        10.3725320109        2.7319987117        5.3162118210
  O        23.3470528520       15.9850181223        8.4397509763
  H        23.8764906570       15.3218005530        8.0012565182
  H        23.9904719327       16.2528173192        9.1410224433
  O        28.8760057290       23.4121233794       10.8428183711
  H        29.4545898272       24.1265256221       10.5077004252
  H        28.0268877883       23.6585029234       10.5276493407
  O        11.0865592479        6.3502521908       -1.2933874406
  H        10.1517988356        6.1321127003       -1.4326147083
  H        11.4221814267        6.1479834629       -2.1861983688
  O         3.3523320849       -0.5833902156        3.2341480833
  H         3.2262056250        0.2395726946        2.7327548639
  H         2.4449563614       -0.6947971673        3.6070401223
  O         2.1362218003        2.1551841304        2.7209148610
  H         1.1975585296        2.2673095682        2.9110934311
  H         2.0900369333        2.0443313585        1.7346236782
  O         8.1229918244       -1.8622835092        1.4403874089
  H         7.2311871882       -1.3820969619        1.6890111993
  H         8.5812100371       -1.0166304963        1.1403965836
  O        21.3128250185       18.5102718929       10.0850475502
  H        22.0282528145       18.8253570997        9.4059556955
  H        21.2105718460       19.3622610897       10.5499006944
  O        20.3688261596       26.9739491113      -11.9199647727
  H        20.1771018767       27.4340294677      -12.7279539749
  H        20.3483000530       27.6588039208      -11.2711514187
  O        13.6037020316        2.5496786885       -9.1361853364
  H        13.1454450291        2.8879862212       -9.8731815776
  H        13.0817367768        2.9127630298       -8.3871751894
  O        19.8077567147       27.8195208347        0.9469973679
  H        19.4418089948       -3.5239494274        1.6062818370
  H        19.7635086431       28.3624465592        0.1515594307
  O        14.6690691964       21.0945016993       -2.1987762528
  H        14.5051099747       20.5722154605       -1.3618338723
  H        15.5990563609       20.8204404761       -2.3922207902
  O        11.0640007055        3.0736298833       12.0783481188
  H        12.0070038915        2.9655009534       11.8387872577
  H        10.6340620421        2.2576379013       11.8774563947
  O        24.3164789288       -3.5378596294        5.9529011750
  H        23.4976850975       -3.5157169936        6.4455770759
  H        24.4241890648       27.5070622941        5.7772115013
  O         5.2874886849       13.6949316141        2.9203325184
  H         4.7341711558       12.8416544355        2.8708657991
  H         5.1445141484       13.8964260179        3.8769289834
  O         5.6224563423        2.2604289020        0.1501155084
  H         5.3245196880        1.7141214995       -0.6151644401
  H         6.2443223567        2.8677426177       -0.3487087003
  O        14.4505994077       10.0038555353        3.9333064124
  H        14.3834641942        9.7588597178        4.8617681932
  H        13.5729572141        9.5770657333        3.6315364218
  O        16.2424610297        7.4410871136       -8.8876298069
  H        16.7210694660        7.7329067598       -8.0520225944
  H        15.4311929853        8.0415927936       -8.8033990929
  O        -0.1982432908       15.8078490868      -12.3461420527
  H         0.7313929779       15.5335003218      -12.0878878599
  H        -0.3979250706       14.9778456483      -12.9105994418
  O        21.8024032041        4.3617006155        1.8293538907
  H        21.4503028563        3.8097461180        1.0992948526
  H        22.2456603760        5.0672702976        1.3282456738
  O         7.0549798438       -0.7536262449       -1.5666897130
  H         7.9203881271       -0.6616769220       -1.2376547990
  H         6.8613604048       -1.6847997701       -1.4278917961
  O        19.5518058748        3.8265524457       10.7998372393
  H        19.7291696587        4.1955948574       11.6828353783
  H        18.9377930936        4.4028111709       10.4203573918
  O         6.9030381186       21.2002867061        3.4778087692
  H         6.4525630104       20.7676605723        2.7277573097
  H         6.3236732929       21.8962275667        3.7205502177
  O         8.8273436534       22.2800403224       11.4531021238
  H         9.4853535390       21.6087632637       11.6968710615
  H         8.1500766457       22.2249611792       12.1441084177
  O        17.5650624913        1.5445017401       -6.0730348444
  H        16.7525734161        1.7922643116       -5.6745510491
  H        17.7726309648        2.3140263732       -6.6010305811
  O        10.9822171897       29.3433529077       -1.1502980931
  H        10.9401742575       -2.4569531201       -2.1314417654
  H        10.5817484395       -3.5471157799       -1.2182519128
  O         1.7941213614       19.9064854498      -12.7236199843
  H         1.3316892697       19.2285801536      -13.3205416816
  H         1.1074189337       19.9994938416      -12.0312508215
  O         1.0852011398       -2.9625981616        2.0795084013
  H         0.5048681011       -3.7185695806        1.8955682796
  H         1.9616390909       -3.3614067387        1.9799623224
  O        10.1808013343        8.3557748690      -13.3849994882
  H        10.6726770429        7.7849089299      -12.7333970119
  H        10.1771015540        7.7589734325      -14.1556112719
  O        21.3869796461        0.9189140540       -0.5006119033
  H        20.6698747003        0.5122537328        0.0823481009
  H        21.4243506250        0.1234614398       -1.1670551703
  O        14.0805764772        7.5977729398       -2.3688440916
  H        14.3161483902        8.1286915330       -3.1921204482
  H        14.5065995052        8.0680257326       -1.6330810103
  O        14.3303608619        2.7112982303       10.9528005053
  H        14.6594582399        3.6176460531       10.8657206275
  H        14.4699332294        2.4071451212       10.0336315018
  O        26.7348355414       -2.8611134966        4.5932729996
  H        26.5830264322       28.9275251707        3.6538145006
  H        25.8493351076       -3.0384681904        5.0023508386
  O         3.7074711050        4.6562023712       -0.6376417205
  H         3.2955194745        3.7883630372       -0.8307594595
  H         3.6501161706        4.5897327643        0.3395067049
  O        24.7879124178       27.3182537303       -5.3657530917
  H        24.0930458085       26.8661277381       -4.8601437848
  H        25.0711860671       27.9942408222       -4.7143403206
  O         0.5124367914       -5.1971729620       -1.4607885631
  H         0.3342930831       -4.8377957506       -2.3495076627
  H         1.4970932007       -5.2223483904       -1.4900332140
  O         9.0462533504        5.6252633402        3.5962646535
  H         8.3421247992        5.9725212909        3.0816984502
  H         9.0788043671        6.1123078168        4.4057382512
  O        27.5465976973        5.7305446111        2.5387071711
  H        27.2288331435        5.0866754124        1.7998922435
  H        27.8596432243        6.4207594873        1.9306092785
  O        21.4905775422       10.7701349469        5.3092920734
  H        20.9304772952       10.2209723813        5.9188756383
  H        21.4285838447       11.6072903142        5.8100313215
  O         1.3443062962       13.8416330469        0.3067819212
  H         2.2369545637       14.2328402160        0.5728650312
  H         1.2636382070       14.2757475102       -0.5783357802
  O         7.1951566005       15.3261501485        6.1503078266
  H         7.3442024075       16.2527624789        5.8796977686
  H         6.2289161269       15.0045318594        6.0198421452
  O         6.4869281383       26.1906819857       -6.8766348593
  H         6.9753779663       26.9242770356       -6.4186763063
  H         7.2643796644       25.5780760993       -6.9556079537
  O        30.2975310799       26.1463002673      -10.1236356765
  H        30.3351979765       25.2293498939       -9.7062066549
  H        -2.6842306822       26.3313033571       -9.9603275160
  O        -0.2422407987       27.2887499589       -4.1876829932
  H        -0.7613791211       28.0809664483       -4.4559670208
  H        -0.7895694766       26.5800457088       -4.6430672438
  O        -2.6081020422        4.1343455934        4.2625662464
  H        -2.7446746174        4.8352319907        3.5882789870
  H        -3.5850287684        3.8545817865        4.3315161926
  O        15.2489854821       -1.6188062194       -1.3540305411
  H        14.5653111161       -1.6597444766       -0.6215948364
  H        14.8831215702       -2.3603445741       -1.8482563574
  O        13.8226769288       24.4035655554      -10.5328768241
  H        14.6913012872       24.7894851040      -10.7641713412
  H        13.1773174163       25.0673446086      -10.8672062663
  O        11.8667797752        8.6051059684        3.6405632899
  H        11.6765113558        8.1487015845        2.7539993293
  H        11.0714613672        9.2185985628        3.5744396620
  O         0.4716525260       26.4315986362       10.4235568354
  H        -0.4263103870       26.1226703137       10.0484186629
  H         0.8719035780       25.5779435958       10.4886633966
  O         8.4056003747       22.7883388088        7.2390750608
  H         8.4266730951       23.5724500615        6.6413396547
  H         8.9913799800       23.1722795518        7.9725496371
  O        25.9243728433        1.7654297828      -11.5194386914
  H        26.3443455420        2.1817218644      -12.2756672758
  H        25.2617489168        2.4064978768      -11.2612266530
  O         2.0537210783       16.2519962272       -9.0744431419
  H         1.6073958113       15.5775850095       -8.5718978655
  H         2.1253673296       15.8718830877       -9.9467999481
  O        21.2581735407       10.5682661084       -4.1247263209
  H        21.7084997099       10.8095622584       -3.2810114528
  H        21.5397164829        9.6889670319       -4.2928065697
  O        17.6444319895        3.1035448820      -12.5208391994
  H        16.9922618447        2.6989060740      -11.9116999854
  H        18.0859178908        2.2224752010      -12.6993130540
  O        26.2576075661       -0.8440563123       -4.3832934949
  H        25.7629027624       -0.8387633459       -5.1847642546
  H        26.7954297736       -0.0636314530       -4.3918217579
  O        15.5756115573        5.5537747382       11.1739033612
  H        14.9173023822        6.0279744913       11.7110494027
  H        15.7861442817        6.0917560199       10.3703313176
  O        20.1052224155       25.4774692530       -9.7053389026
  H        20.3090222406       25.9375615486      -10.5702437353
  H        20.9104152216       25.7189926811       -9.1900319076
  O        16.1400922492       21.1186728789      -10.6007888530
  H        15.2750421150       21.1158204191      -11.0743244276
  H        16.2260729564       20.1701190326      -10.4112378712
  O        16.8434749482        8.2611829742        9.5841007071
  H        16.8719828349        8.8024088146        8.6652219855
  H        17.5506366866        8.6879874164       10.1674599792
  O        30.5528564253       14.6351665654       -0.9255785028
  H        30.4028891886       13.6903651122       -0.6377536211
  H        29.6718956057       15.0261597906       -0.5935388837
  O         9.5031745206        0.1944683441       -7.4408621759
  H         9.8846017158        0.3454630193       -8.3361330191
  H        10.0925869208       -0.5979206997       -7.1979987647
  O        -1.0160549372       18.3849997838        2.0264491356
  H        -0.8644622747       17.4684112480        2.3366948437
  H        -1.5524648496       18.7390857707        2.7444765249
  O        13.2109127812        2.8344709552        2.3216206775
  H        12.9124559088        3.3365182866        3.1106124878
  H        13.0316694183        3.4367311544        1.5964642109
  O         7.4703369477       15.1257102810       -3.5312896553
  H         7.5527389707       14.1762530003       -3.6808894514
  H         6.6778004654       15.3504517405       -4.0530925373
  O        20.2422552629       20.5006026848        7.8141403537
  H        20.2108402540       21.3747126626        8.3155332130
  H        19.7345753764       19.9523528018        8.4305883809
  O        10.6815332472       11.5156834616       -8.2705365585
  H        10.7483888703       10.9393862446       -9.0247475794