#     Step Nr.          Time[fs]        Kin.[a.u.]          Temp[K]            Pot.[a.u.]        Cons Qty[a.u.]        UsedTime[s]
         0            0.000000         3.843405441       300.000000000     -1250.910813913     -1247.066933449         0.000000000
         1            1.000000         3.664382290       286.026208766     -1250.674682947     -1247.008995240        42.881150614
         2            2.000000         3.517766356       274.581988034     -1250.532754679     -1247.012921034        12.082259660
         3            3.000000         3.576149717       279.139146651     -1250.620771195     -1247.041857346        12.068216874
         4            4.000000         3.645180774       284.527419486     -1250.631663954     -1246.983059576        12.117829571
         5            5.000000         3.759528620       293.452929507     -1250.763709123     -1247.000117690        12.106035733
         6            6.000000         3.684904719       287.628102898     -1250.655111756     -1246.965522140        12.113779209
         7            7.000000         3.695046022       288.419690165     -1250.657292406     -1246.956973130        12.074242444
         8            8.000000         3.929036620       306.684008218     -1250.921754232     -1246.986860297        12.075997877
         9            9.000000         3.911279172       305.297936803     -1250.872980993     -1246.955232603        12.110353236
        10           10.000000         3.788843312       295.741110589     -1250.738359966     -1246.942435273        12.110170282
        11           11.000000         3.722304838       290.547398251     -1250.652842391     -1246.922868042        12.076450041
        12           12.000000         3.783578680       295.330175610     -1250.691303847     -1246.899488271        12.100193646
        13           13.000000         4.043140103       315.590444270     -1250.996943707     -1246.944981743        12.070546637
        14           14.000000         4.042757351       315.560568275     -1250.973027396     -1246.920808432        12.075919361
        15           15.000000         3.910328414       305.223724663     -1250.799628885     -1246.879171489        12.081090118
        16           16.000000         3.965706328       309.546290797     -1250.859620780     -1246.883105440        12.102369122
        17           17.000000         3.984605977       311.021517617     -1250.865893775     -1246.869767512        12.083396690
        18           18.000000         3.974932349       310.266435063     -1250.858631740     -1246.871437985        12.106414649
        19           19.000000         3.857436140       301.095177110     -1250.722763967     -1246.852312558        12.117495474
        20           20.000000         3.751367932       292.815940613     -1250.592933337     -1246.827814059        12.080727583
        21           21.000000         3.953164524       308.567330552     -1250.846350152     -1246.878699074        12.095462952
        22           22.000000         4.049014312       316.048960276     -1250.949005481     -1246.884720161        12.120271200
        23           23.000000         3.915902431       305.658808896     -1250.818469255     -1246.886477856        12.073674510
        24           24.000000         3.804180485       296.938265549     -1250.753880279     -1246.932802085        12.123755109
        25           25.000000         3.738289030       291.795056808     -1250.627454844     -1246.871483781        12.085844642
        26           26.000000         3.850724653       300.571306757     -1250.817674178     -1246.948494020        12.817804834
        27           27.000000         3.866008490       301.764298503     -1250.852903363     -1246.967653070        12.721709367
        28           28.000000         3.710223011       289.604341820     -1250.690582094     -1246.960344263        12.070377383
        29           29.000000         3.773042159       294.507739296     -1250.777547006     -1246.983746456        12.091552646
        30           30.000000         3.888760872       303.540253422     -1250.871601827     -1246.961333169        12.071912521
        31           31.000000         3.903321700       304.676810174     -1250.886989765     -1246.961390709        12.101479668
        32           32.000000         3.797883411       296.446742504     -1250.775442140     -1246.954510985        12.100785532
        33           33.000000         3.628287060       283.208767501     -1250.576500002     -1246.924431723        12.079865972
        34           34.000000         3.739745236       291.908722087     -1250.698965161     -1246.934744945        12.118762526
        35           35.000000         3.918346978       305.849619912     -1250.930447573     -1246.986922613        12.762879667
        36           36.000000         3.895162285       304.039920633     -1250.863050675     -1246.941982186        12.744734822
        37           37.000000         3.864114486       301.616460546     -1250.826776813     -1246.936021826        12.089382001
        38           38.000000         3.861527468       301.414528905     -1250.812588565     -1246.923683688        12.134097744
        39           39.000000         3.945073132       307.935750646     -1250.892976903     -1246.919774882        12.092145962
        40           40.000000         3.976078699       310.355914243     -1250.928148808     -1246.923158123        12.087723686
        41           41.000000         3.804344857       296.951095749     -1250.731456657     -1246.897407951        12.126717679
        42           42.000000         3.789797158       295.815563743     -1250.709011353     -1246.888740179        12.086922200
        43           43.000000         3.957321566       308.891811713     -1250.897322835     -1246.908746683        12.124328610
        44           44.000000         4.039855240       315.334041738     -1251.006635558     -1246.934697297        12.106126267
        45           45.000000         3.998125977       312.076831723     -1250.967656771     -1246.936576208        12.784147464
        46           46.000000         3.851765464       300.652548068     -1250.800570955     -1246.914969611        12.748746352
        47           47.000000         3.845563988       300.168487051     -1250.807633464     -1246.927362927        12.116133651
        48           48.000000         3.952647001       308.526934874     -1250.951517616     -1246.963277368        12.699903506
        49           49.000000         3.878376633       302.729703561     -1250.922131690     -1247.007252537        12.778278996
        50           50.000000         3.777114869       294.825637810     -1250.818053490     -1247.003539598        12.739002646
        51           51.000000         3.802440949       296.802484714     -1250.840066830     -1246.999347952        12.759088621
        52           52.000000         3.915657612       305.639699322     -1250.987197223     -1247.032371439        12.781292568
        53           53.000000         3.986558339       311.173910704     -1251.082197468     -1247.055544367        12.770231512
        54           54.000000         3.816510797       297.900717590     -1250.918041621     -1247.060496959        12.728658958
        55           55.000000         3.679835839       287.232447547     -1250.775605860     -1247.053836979        12.756361619
        56           56.000000         3.776703179       294.793503082     -1250.920859246     -1247.101353605        12.713806149
        57           57.000000         3.860170216       301.308587526     -1251.005090880     -1247.101240046        12.741781525
        58           58.000000         3.829159518       298.888023343     -1250.979401495     -1247.105675436        12.770064115
        59           59.000000         3.723516263       290.641956987     -1250.840112664     -1247.071163053        12.122203142
        60           60.000000         3.730425719       291.181279917     -1250.774773541     -1246.998078384        12.108696094
        61           61.000000         3.872189242       302.246741936     -1250.950198922     -1247.030905329        12.788245245
        62           62.000000         3.836894631       299.491793661     -1250.900614618     -1247.015766467        12.088512195
        63           63.000000         3.663351613       285.945758408     -1250.692459762     -1246.980331826        12.141917104
        64           64.000000         3.620767389       282.621813687     -1250.620409704     -1246.950096830        12.115441483
        65           65.000000         3.743734135       292.220078669     -1250.753051047     -1246.959031544        12.081498801
        66           66.000000         3.875906836       302.536921601     -1250.846294904     -1246.919355489        12.080626230
        67           67.000000         3.815961971       297.857878556     -1250.761202158     -1246.893450449        12.102302237
        68           68.000000         3.692301814       288.205488877     -1250.598986289     -1246.854161355        12.128243879
        69           69.000000         3.754287156       293.043802930     -1250.684645681     -1246.877131805        12.077182122
        70           70.000000         3.864221132       301.624784937     -1250.785103436     -1246.866951037        12.081798436
        71           71.000000         3.832639519       299.159657533     -1250.755582898     -1246.868298491        12.126217041
        72           72.000000         3.727204441       290.929840580     -1250.629603957     -1246.847056407        12.054935578
        73           73.000000         3.742097903       292.092361294     -1250.630356005     -1246.832243650        12.096204223
        74           74.000000         3.928319989       306.628071059     -1250.823159247     -1246.838150099        12.120324163
        75           75.000000         4.012536394       313.201647999     -1250.903430527     -1246.833490192        12.096274588
        76           76.000000         3.876771595       302.604421097     -1250.741767850     -1246.806851891        12.089178410
        77           77.000000         3.775976419       294.736775247     -1250.637695022     -1246.802847001        12.107105521
        78           78.000000         3.846578998       300.247714420     -1250.728665113     -1246.822497858        12.063711670
        79           79.000000         3.947946493       308.160033038     -1250.854036634     -1246.845766100        12.087314447
        80           80.000000         3.892184317       303.807473028     -1250.778822874     -1246.825555631        12.094856977
        81           81.000000         3.763322630       293.749073908     -1250.660786244     -1246.835630166        12.079711775
        82           82.000000         3.812915079       297.620051074     -1250.729017357     -1246.853535903        12.089173114
        83           83.000000         3.970966735       309.956895961     -1250.913760255     -1246.879475843        12.103981703
        84           84.000000         3.972001805       310.037689121     -1250.895380688     -1246.859270565        12.102327525
        85           85.000000         3.802160150       296.780566740     -1250.713642293     -1246.846576569        12.094980868
        86           86.000000         3.714253631       289.918955036     -1250.613961698     -1246.834035858        12.073519105
        87           87.000000         3.830518100       298.994068521     -1250.755324627     -1246.858383445        12.116700738
        88           88.000000         3.932897246       306.985352362     -1250.868274839     -1246.868182918        12.133153579
        89           89.000000         3.851044177       300.596247481     -1250.793806780     -1246.874779007        12.060655598
        90           90.000000         3.738216817       291.789420127     -1250.675474488     -1246.868502186        12.106614660
        91           91.000000         3.805947906       297.076222975     -1250.729801016     -1246.854344695        12.119173455
        92           92.000000         3.949317922       308.267081054     -1250.918040147     -1246.898443436        12.098170908
        93           93.000000         3.903373114       304.680823282     -1250.876263152     -1246.901812427        12.088484535
        94           94.000000         3.732009058       291.304868653     -1250.681668354     -1246.877794073        12.069881489
        95           95.000000         3.701468916       288.921034189     -1250.682765469     -1246.908680655        12.102272231
        96           96.000000         3.852804184       300.733626138     -1250.850128465     -1246.923966988        12.074522636
        97           97.000000         3.949806401       308.305209615     -1250.939744822     -1246.915812626        12.110926452
        98           98.000000         3.834449349       299.300925257     -1250.771031462     -1246.861671369        12.113409394
        99           99.000000         3.732185113       291.318610783     -1250.638775468     -1246.830915798        12.083497463
       100          100.000000         3.828676613       298.850329869     -1250.746263397     -1246.841163871        12.051158867
       101          101.000000         3.943462566       307.810036684     -1250.870620496     -1246.849965937        12.098400340
       102          102.000000         3.888006791       303.481393014     -1250.806459999     -1246.840467945        12.048909807
       103          103.000000         3.740092512       291.935828988     -1250.672189502     -1246.853330090        12.093334756
       104          104.000000         3.747864475       292.542475602     -1250.669914009     -1246.842529372        12.736807630
       105          105.000000         3.923494845       306.251440650     -1250.843683865     -1246.839909629        12.090814226
       106          106.000000         3.962659988       309.308506389     -1250.852837537     -1246.809102210        12.112701581
       107          107.000000         3.817791483       298.000682533     -1250.668250670     -1246.768576597        12.704255865
       108          108.000000         3.739515561       291.890794581     -1250.583639628     -1246.761458122        12.736763012
       109          109.000000         3.826680716       298.694538543     -1250.691783872     -1246.781666783        12.702672903
       110          110.000000         3.938690444       307.437544980     -1250.832928554     -1246.810011048        12.051571408
       111          111.000000         3.855345498       300.931990417     -1250.740447043     -1246.800063832        12.748759279
       112          112.000000         3.704444645       289.153306972     -1250.584662985     -1246.794390822        12.733479003
       113          113.000000         3.774161045       294.595074765     -1250.654019608     -1246.793268759        12.725234821
       114          114.000000         3.911925146       305.348358829     -1250.755152206     -1246.755863128        12.743701586
       115          115.000000         3.905931793       304.880542976     -1250.771904287     -1246.777808010        12.680581272
       116          116.000000         3.764639550       293.851867080     -1250.626693202     -1246.773091671        12.740215870
       117          117.000000         3.674275276       286.798413439     -1250.509654661     -1246.745655049        12.740410986
       118          118.000000         3.814182889       297.719010975     -1250.683604720     -1246.778954674        12.725043186
       119          119.000000         3.904553213       304.772936888     -1250.795418115     -1246.799636148        12.688689294
       120          120.000000         3.778526566       294.935828928     -1250.652958946     -1246.782435757        12.047775201
       121          121.000000         3.689457419       287.983467418     -1250.554186661     -1246.771994916        12.728476439
       122          122.000000         3.734895864       291.530200557     -1250.582159533     -1246.753819590        12.739467714
       123          123.000000         3.847665613       300.332530976     -1250.740933528     -1246.799115735        12.692171402
       124          124.000000         3.818661022       298.068555080     -1250.731711540     -1246.818182054        12.740097202
       125          125.000000         3.634435271       283.688670838     -1250.517569481     -1246.787574833        12.064693179
       126          126.000000         3.635730585       283.789777651     -1250.528033630     -1246.796102086        12.150993126
       127          127.000000         3.778172218       294.908169995     -1250.680145212     -1246.805151692        12.093503674
       128          128.000000         3.820506967       298.212641796     -1250.711342139     -1246.793390457        12.069717837
       129          129.000000         3.745359404       292.346940328     -1250.634206093     -1246.790785731        12.071485562
       130          130.000000         3.647536523       284.711299297     -1250.525054287     -1246.778871152        12.096959739
       131          131.000000         3.744470555       292.277560534     -1250.628674360     -1246.785001978        12.095378400
       132          132.000000         3.877006903       302.622788209     -1250.770935347     -1246.794170020        12.043579335
       133          133.000000         3.782833527       295.272012127     -1250.642768841     -1246.759613555        12.062643642
       134          134.000000         3.696560088       288.537871762     -1250.516458282     -1246.719035047        12.096787806
       135          135.000000         3.743250628       292.182338193     -1250.571613573     -1246.726983735        12.725440873
       136          136.000000         3.870471891       302.112692806     -1250.695786739     -1246.723422489        12.049631875
       137          137.000000         3.943972947       307.849874866     -1250.777509444     -1246.731110290        12.092000423
       138          138.000000         3.799255451       296.553838209     -1250.575395512     -1246.673167081        12.065100284
       139          139.000000         3.756689443       293.231315349     -1250.482859632     -1246.622666628        12.042835474
       140          140.000000         3.899112802       304.348281333     -1250.663671223     -1246.660526735        12.719090810
       141          141.000000         3.924400956       306.322167882     -1250.661752098     -1246.632768027        12.694965072
       142          142.000000         3.867076323       301.847649059     -1250.605612360     -1246.633385937        12.728914334
       143          143.000000         3.776852778       294.805180134     -1250.527288570     -1246.644721900        12.060869098
       144          144.000000         3.816392667       297.891496866     -1250.587855953     -1246.665195615        12.073549071
       145          145.000000         3.980984773       310.738861722     -1250.794920851     -1246.707098130        12.088601060
       146          146.000000         3.910363516       305.226464547     -1250.708504101     -1246.690699350        12.063002605
       147          147.000000         3.770126892       294.280185848     -1250.558979213     -1246.680808037        12.079678202
       148          148.000000         3.773182826       294.518719155     -1250.587595508     -1246.705782730        12.059033580
       149          149.000000         3.831972714       299.107609583     -1250.644616368     -1246.703431458        12.045684757
       150          150.000000         3.898031291       304.263863184     -1250.744523089     -1246.736685459        12.126840001
       151          151.000000         3.771674448       294.400981534     -1250.612476433     -1246.730395520        12.038881861
       152          152.000000         3.659442393       285.640621210     -1250.508105042     -1246.737683653        12.051494505
       153          153.000000         3.791234039       295.927720620     -1250.670708576     -1246.767946945        12.079711207
       154          154.000000         3.844187212       300.061021740     -1250.727806973     -1246.771537686        12.046593016
       155          155.000000         3.787127252       295.607162148     -1250.670850341     -1246.771084800        12.055561628
       156          156.000000         3.699911670       288.799482115     -1250.599484398     -1246.786395799        12.064202403
       157          157.000000         3.675482104       286.892613358     -1250.558643122     -1246.769475035        12.064582574
       158          158.000000         3.847992741       300.358065214     -1250.756021552     -1246.793847228        12.054301460
       159          159.000000         3.856685369       301.036575104     -1250.754142239     -1246.782766301        12.059889657
       160          160.000000         3.712073234       289.748762434     -1250.601934288     -1246.774666980        12.065110297
       161          161.000000         3.734757411       291.519393476     -1250.657526954     -1246.807096935        12.065405026
       162          162.000000         3.808272154       297.257643907     -1250.723295434     -1246.798881475        12.017065203
       163          163.000000         3.897898974       304.253535047     -1250.820879193     -1246.806360996        12.098015701
       164          164.000000         3.854104987       300.835161332     -1250.762933350     -1246.791716431        12.033031475
       165          165.000000         3.710642495       289.637084994     -1250.572506522     -1246.744266639        12.081854898
       166          166.000000         3.827795601       298.781561791     -1250.711703971     -1246.765841972        12.034747853
       167          167.000000         3.942879733       307.764543143     -1250.830211288     -1246.768779689        12.056291806
       168          168.000000         3.895294678       304.050254716     -1250.751328398     -1246.736970691        12.020358359
       169          169.000000         3.827423319       298.752503009     -1250.688864324     -1246.741858746        12.052758180
       170          170.000000         3.742059366       292.089353262     -1250.598848809     -1246.736696032        12.068454572
       171          171.000000         3.860739255       301.353004276     -1250.713798343     -1246.732461457        12.680437210
       172          172.000000         3.936911326       307.298674512     -1250.805854641     -1246.747819955        12.682769516
       173          173.000000         3.779876951       295.041234272     -1250.608766669     -1246.707226912        12.250979691
       174          174.000000         3.777043617       294.820076189     -1250.608614190     -1246.709381717        12.045641183
       175          175.000000         3.844936540       300.119511120     -1250.672814472     -1246.705163361        12.055993665
       176          176.000000         3.904108039       304.738188428     -1250.742081226     -1246.714717244        12.017720649
       177          177.000000         3.921611345       306.104422600     -1250.779021175     -1246.733588727        12.023430560
       178          178.000000         3.758001511       293.333729782     -1250.580911152     -1246.698515477        12.011622315
       179          179.000000         3.789379871       295.782992119     -1250.640880511     -1246.726547746        12.063335550
       180          180.000000         3.932949889       306.989461482     -1250.826137164     -1246.767662947        12.084229075
       181          181.000000         3.894490566       303.987489136     -1250.738282081     -1246.717666325        12.033448926
       182          182.000000         3.858610226       301.186821312     -1250.733431033     -1246.748081590        12.684207655
       183          183.000000         3.806241547       297.099143340     -1250.677850118     -1246.744250939        12.073833062
       184          184.000000         3.865304982       301.709385665     -1250.750644019     -1246.757358057        12.066132286
       185          185.000000         3.987870778       311.276354173     -1250.929062085     -1246.812556543        12.035383584
       186          186.000000         3.839387309       299.686361560     -1250.748959099     -1246.780253105        12.046721497
       187          187.000000         3.750014660       292.710309951     -1250.671911621     -1246.791904177        12.056555238
       188          188.000000         3.805661516       297.053868558     -1250.776664966     -1246.840344045        12.050534042
       189          189.000000         3.823031484       298.409694951     -1250.783838258     -1246.829472204        12.694714122
       190          190.000000         3.859992736       301.294734166     -1250.849470185     -1246.857455638        12.107026475
       191          191.000000         3.736171241       291.629751126     -1250.693402815     -1246.824519976        12.068099200
       192          192.000000         3.704921747       289.190547539     -1250.647470659     -1246.809169121        12.071382790
       193          193.000000         3.884395675       303.199524531     -1250.868496171     -1246.850050183        12.045672926
       194          194.000000         3.867251311       301.861307905     -1250.825828888     -1246.823827518        12.078391811
       195          195.000000         3.811075303       297.476445876     -1250.728376112     -1246.781841917        12.066423477
       196          196.000000         3.777920355       294.888510692     -1250.695197483     -1246.781111316        12.675404148
       197          197.000000         3.781939047       295.202192782     -1250.657330556     -1246.738521167        12.710393443
       198          198.000000         3.945648419       307.980655129     -1250.864006814     -1246.780763415        12.727975763
       199          199.000000         3.879962988       302.853527756     -1250.796075674     -1246.777755695        12.038320080
       200          200.000000         3.760768917       293.549741866     -1250.642694273     -1246.742804741        12.716028170
       201          201.000000         3.848765391       300.418375032     -1250.760186735     -1246.771537468        12.132683300
       202          202.000000         3.869906987       302.068598785     -1250.751257548     -1246.740678665        12.037421846
       203          203.000000         3.915093450       305.595663255     -1250.815950657     -1246.759369491        12.068612491
       204          204.000000         3.846167162       300.215568229     -1250.744005032     -1246.755509717        12.707086944
       205          205.000000         3.729468408       291.106556302     -1250.597705464     -1246.725073376        12.771924584
       206          206.000000         3.885567704       303.291008220     -1250.800147680     -1246.770576047        12.051512206
       207          207.000000         3.901483222       304.533306327     -1250.794109223     -1246.747741056        12.050886703
       208          208.000000         3.794883577       296.212588182     -1250.678636200     -1246.737971165        12.058560366
       209          209.000000         3.783300131       295.308433259     -1250.673373671     -1246.743399010        12.040658179
       210          210.000000         3.744143538       292.252034961     -1250.612950156     -1246.721239804        12.050167676
       211          211.000000         3.864888410       301.676869824     -1250.784195505     -1246.770835972        12.099570272
       212          212.000000         3.872533760       302.273633582     -1250.822014475     -1246.800069940        12.080958751
       213          213.000000         3.701574603       288.929283643     -1250.602783158     -1246.750857869        12.101018661
       214          214.000000         3.777480262       294.854158880     -1250.755958574     -1246.827202231        12.726556750
       215          215.000000         3.844036744       300.049276853     -1250.827205734     -1246.830943882        12.692592704
       216          216.000000         3.856419223       301.015800877     -1250.822205019     -1246.812583253        12.070164204
       217          217.000000         3.839685005       299.709598482     -1250.845931675     -1246.852045054        12.049482225
       218          218.000000         3.680777085       287.305917217     -1250.644440086     -1246.808468973        12.041375846
       219          219.000000         3.784726983       295.419807345     -1250.760247551     -1246.819346202        12.069912893
       220          220.000000         3.895153225       304.039213458     -1250.902911610     -1246.850566011        12.070745110
       221          221.000000         3.786036842       295.522049341     -1250.752957839     -1246.808684272        12.049992614
       222          222.000000         3.795657106       296.272966539     -1250.801991301     -1246.847053315        12.034761399
       223          223.000000         3.773664755       294.556336498     -1250.786532503     -1246.852532734        12.078399492
       224          224.000000         3.858086178       301.145916285     -1250.873360539     -1246.853865379        12.695301705
       225          225.000000         3.962762934       309.316541888     -1251.010054031     -1246.884754737        12.047864888
       226          226.000000         3.786481111       295.556727112     -1250.796193488     -1246.846018542        12.047183287
       227          227.000000         3.795642774       296.271847867     -1250.815881540     -1246.855395103        12.095420743