#     Step Nr.          Time[fs]        Kin.[a.u.]          Temp[K]            Pot.[a.u.]        Cons Qty[a.u.]        UsedTime[s]
         0            0.000000         3.844830508       300.000000000     -1263.244081194     -1259.398775663         0.000000000
         1            1.000000         3.289649453       256.680972966     -1262.736701971     -1259.445796364        46.246659197
         2            2.000000         2.637268260       205.777725755     -1261.831347557     -1259.192258733        12.608235290
         3            3.000000         3.742260329       291.996772347     -1263.289821718     -1259.545305901        12.008069238
         4            4.000000         3.374439319       263.296858851     -1262.795132815     -1259.417999889        12.638455240
         5            5.000000         2.731338119       213.117700194     -1262.001170191     -1259.266839947        12.629703539
         6            6.000000         3.303631947       257.771982905     -1262.893233578     -1259.586471666        12.606524017
         7            7.000000         2.887015141       225.264687309     -1262.232791352     -1259.342606672        12.651474696
         8            8.000000         3.109349134       242.612707667     -1262.613311265     -1259.500894391        11.972696254
         9            9.000000         2.653569497       207.049659877     -1262.189341059     -1259.532920665        12.013623817
        10           10.000000         1.679411618       131.039192548     -1260.891147574     -1259.209181314        11.985270035
        11           11.000000         2.903198968       226.527460281     -1262.492029890     -1259.586838912        12.024614137
        12           12.000000         3.211584387       250.589802100     -1262.708905350     -1259.496233319        11.978705565
        13           13.000000         3.025182010       236.045412411     -1262.415629340     -1259.390392985        11.960902108
        14           14.000000         3.270014167       255.148893565     -1262.881044048     -1259.612146474        12.622760377
        15           15.000000         2.575581232       200.964481533     -1261.872166443     -1259.298889560        12.652593987
        16           16.000000         3.330856275       259.896211342     -1262.867066450     -1259.539890475        12.016190404
        17           17.000000         3.530257449       275.454856176     -1263.144586474     -1259.619706887        11.986694227
        18           18.000000         2.584407019       201.653129831     -1261.871966596     -1259.294516918        11.958717669
        19           19.000000         3.405202774       265.697234261     -1263.000687716     -1259.604158732        12.573871195
        20           20.000000         3.726911017       290.799113956     -1263.214248048     -1259.498139648        12.657356572
        21           21.000000         4.052691840       316.218764219     -1263.508954681     -1259.469405312        11.973163641
        22           22.000000         4.357158366       339.975327110     -1264.033372764     -1259.691833560        11.988972352
        23           23.000000         3.119985846       243.442656758     -1262.411448134     -1259.309213992        12.006984057
        24           24.000000         3.581772133       279.474384514     -1263.068070519     -1259.506044603        12.640533789
        25           25.000000         4.140374157       323.060338937     -1263.735210599     -1259.616918544        12.623917220
        26           26.000000         3.582773409       279.552510905     -1262.874740387     -1259.316342189        11.976766921
        27           27.000000         3.995709226       311.772590551     -1263.539379664     -1259.570309691        12.079617118
        28           28.000000         3.619620403       282.427565667     -1262.907642335     -1259.316911120        12.074946030
        29           29.000000         3.933734387       306.936889270     -1263.285593111     -1259.382990478        12.633392683
        30           30.000000         4.556834141       355.555398161     -1264.181625061     -1259.658393681        12.666403798
        31           31.000000         3.252382545       253.773153726     -1262.570822255     -1259.354203983        13.251314005
        32           32.000000         3.245542013       253.239408513     -1262.707078217     -1259.499154205        12.612716237
        33           33.000000         3.627276910       283.024978790     -1263.171470201     -1259.583851898        13.292994717
        34           34.000000         3.554384075       277.337380693     -1262.970250618     -1259.457685889        13.899697373
        35           35.000000         4.265405527       332.816142417     -1263.977469753     -1259.756248786        14.522858373
        36           36.000000         3.504253120       273.425820400     -1262.940455183     -1259.482663938        14.855969585
        37           37.000000         3.447017006       268.959866910     -1262.839217004     -1259.440719183        13.853379112
        38           38.000000         4.322207064       337.248187279     -1264.026255207     -1259.754892716        13.913367401
        39           39.000000         3.537776657       276.041556240     -1262.913843372     -1259.429179867        13.902383061
        40           40.000000         3.541188641       276.307782634     -1263.055250358     -1259.569226495        13.274137879
        41           41.000000         3.531385301       275.542858945     -1263.061425006     -1259.587280025        13.297298045
        42           42.000000         3.525178272       275.058544042     -1262.852317378     -1259.386475716        13.853676810
        43           43.000000         4.662669881       363.813427206     -1264.347169257     -1259.746263637        13.925387008
        44           44.000000         3.924424907       306.210499966     -1263.353669425     -1259.493389960        13.851570371
        45           45.000000         3.430086351       267.638821256     -1262.787704338     -1259.423744821        13.267872918
        46           46.000000         4.004594654       312.465892453     -1263.602562165     -1259.666115721        13.900023672
        47           47.000000         3.588391721       279.990890123     -1262.926986840     -1259.408764036        14.543361351
        48           48.000000         3.985361234       310.965169403     -1263.545516767     -1259.632332089        13.853765652
        49           49.000000         3.653175311       285.045749324     -1263.155405719     -1259.576384249        13.863944622
        50           50.000000         3.211830535       250.609008255     -1262.479499281     -1259.343600492        13.894093836
        51           51.000000         4.430553845       345.702144938     -1264.080831414     -1259.728231863        13.919374350
        52           52.000000         4.083798534       318.645921430     -1263.530951409     -1259.527231969        13.893603155
        53           53.000000         3.582899833       279.562375360     -1262.969425134     -1259.468434100        13.893915689
        54           54.000000         3.675775089       286.809138769     -1263.155771710     -1259.563635745        13.268767591
        55           55.000000         3.207033481       250.234709256     -1262.388617373     -1259.266870378        13.275106340
        56           56.000000         4.119323868       321.417851241     -1263.570311877     -1259.538077862        12.647362013
        57           57.000000         4.030805912       314.511074322     -1263.432195638     -1259.490410368        12.602106741
        58           58.000000         3.238682092       252.704150554     -1262.367862395     -1259.219866089        12.612872748
        59           59.000000         4.048978180       315.928999053     -1263.492990521     -1259.536405594        12.611969144
        60           60.000000         3.943972904       307.735768530     -1263.194955493     -1259.345187338        12.635334665
        61           61.000000         3.959012398       308.909252786     -1263.216820550     -1259.353739072        11.970292732
        62           62.000000         3.920390648       305.895719415     -1263.323328516     -1259.500527944        12.617814419
        63           63.000000         3.035549047       236.854319624     -1262.150425844     -1259.213901626        12.634130754
        64           64.000000         3.986007061       311.015561191     -1263.359433454     -1259.473971686        12.637716100
        65           65.000000         4.302108124       335.679930348     -1263.721315382     -1259.521489198        12.641880938
        66           66.000000         3.626519743       282.965899425     -1262.828361907     -1259.305680172        12.611014758
        67           67.000000         3.941662144       307.555467188     -1263.427711146     -1259.591353682        12.576699324
        68           68.000000         3.518625319       274.547237781     -1262.793521361     -1259.381611349        12.637808060
        69           69.000000         3.930876314       306.713882849     -1263.296474430     -1259.473730300        13.253847076
        70           70.000000         4.285586225       334.390778647     -1263.819437077     -1259.643490606        13.218546496
        71           71.000000         3.184162068       248.450125004     -1262.332270818     -1259.259037928        13.275121339
        72           72.000000         3.708516319       289.363833658     -1263.085643168     -1259.489298923        13.241396444
        73           73.000000         4.094225849       319.459532000     -1263.484845343     -1259.504194184        13.276950493
        74           74.000000         3.893362079       303.786765449     -1263.055753223     -1259.277332294        12.617926378
        75           75.000000         4.175809682       325.825261207     -1263.611470065     -1259.551925600        12.611126196
        76           76.000000         3.249925513       253.581439232     -1262.389650373     -1259.257146259        12.603162009
        77           77.000000         3.550775556       277.055819399     -1262.793227753     -1259.360985484        12.641498639
        78           78.000000         4.289019321       334.658652347     -1263.632715158     -1259.463527400        12.619149110
        79           79.000000         3.520798862       274.716832443     -1262.552897333     -1259.153144174        12.614633772
        80           80.000000         3.726031874       290.730517177     -1262.933930931     -1259.330082567        12.633289083
        81           81.000000         3.658487267       285.460224547     -1262.802626725     -1259.267484956        12.628790844
        82           82.000000         3.700244807       288.718433652     -1262.745782662     -1259.170047907        11.962230552
        83           83.000000         4.423173067       345.126246109     -1263.792341884     -1259.494946355        11.987496508
        84           84.000000         3.448579244       269.081763402     -1262.529509206     -1259.207837430        13.861180231
        85           85.000000         3.354598989       261.748780493     -1262.503349514     -1259.276662113        12.616391075
        86           86.000000         4.029801579       314.432709327     -1263.390043249     -1259.489294692        12.632929547
        87           87.000000         3.716909718       290.018744127     -1262.860254976     -1259.273558039        12.575553184
        88           88.000000         4.107523979       320.497143091     -1263.489571352     -1259.513414058        12.613882336
        89           89.000000         3.640004451       284.018068671     -1262.918492189     -1259.410943079        12.584750960
        90           90.000000         3.430154782       267.644160709     -1262.582280967     -1259.285585416        12.575953881
        91           91.000000         4.399815957       343.303764467     -1263.896352351     -1259.631137676        12.582872470
        92           92.000000         3.764429540       293.726566004     -1263.002491357     -1259.373758118        12.655296954
        93           93.000000         3.537747393       276.039272875     -1262.792508884     -1259.391422121        12.599361525
        94           94.000000         3.770842160       294.226922475     -1263.193127339     -1259.559939475        12.641135453
        95           95.000000         3.529639854       275.406667211     -1262.724118043     -1259.333130836        12.620469938
        96           96.000000         4.304405432       335.859182055     -1263.767115219     -1259.602450723        12.582932640
        97           97.000000         3.810269676       297.303327214     -1263.137895275     -1259.468411783        12.616015510
        98           98.000000         3.228741751       251.928537100     -1262.377498858     -1259.290440098        12.583829405
        99           99.000000         4.045839137       315.684069448     -1263.536836290     -1259.633674526        12.629778529
       100          100.000000         3.793273771       295.977190338     -1263.094081076     -1259.444523266        12.620028026
       101          101.000000         3.876786277       302.493407866     -1263.250437129     -1259.518366960        12.595352535
       102          102.000000         3.801436130       296.614073487     -1263.228344355     -1259.572606137        12.649070377
       103          103.000000         3.243077409       253.047103245     -1262.410773976     -1259.314298175        12.600896079
       104          104.000000         4.211662191       328.622719444     -1263.734026225     -1259.669986248        12.632486360
       105          105.000000         4.070953172       317.643638352     -1263.502125875     -1259.579861775        13.203199552
       106          106.000000         3.444528694       268.765711766     -1262.711123283     -1259.416203969        12.620489366
       107          107.000000         3.820748264       298.120938449     -1263.435945918     -1259.765734772        14.528862128
       108          108.000000         3.538774268       276.119396722     -1262.947050930     -1259.559758852        15.143366992
       109          109.000000         4.064377404       317.130551904     -1263.610601830     -1259.698708558        15.143288704
       110          110.000000         4.112240525       320.865160316     -1263.733706202     -1259.774977614        15.144095075
       111          111.000000         3.239722233       252.785309456     -1262.550288950     -1259.464960080        15.187984563
       112          112.000000         3.925318454       306.280220626     -1263.505557321     -1259.735556383        13.920826559
       113          113.000000         4.029895556       314.440042041     -1263.545240110     -1259.671671055        13.905562874
       114          114.000000         3.798797314       296.408175020     -1263.268129464     -1259.626609405        15.157874155
       115          115.000000         3.991102710       311.413158660     -1263.626118856     -1259.793225025        15.104826246
       116          116.000000         3.328049683       259.677221888     -1262.691905069     -1259.522920274        15.153925645
       117          117.000000         3.925884645       306.324398693     -1263.457053791     -1259.691139951        14.475565119
       118          118.000000         4.331049205       337.938111603     -1263.924293502     -1259.754219402        13.868615364
       119          119.000000         3.539060621       276.141739927     -1262.834783369     -1259.457576412        14.522741834
       120          120.000000         3.866720935       301.708040931     -1263.340637075     -1259.636617796        13.852946817
       121          121.000000         3.793612374       296.003610487     -1263.137763520     -1259.507724920        13.224810820
       122          122.000000         3.920397784       305.896276221     -1263.231179664     -1259.475228839        13.229218099
       123          123.000000         4.334081324       338.174698346     -1263.907298474     -1259.738563173        13.222079008
       124          124.000000         3.435483891       268.059974345     -1262.695579101     -1259.426214069        13.193316519
       125          125.000000         3.744833636       292.197559418     -1263.140374884     -1259.562414589        13.246451850
       126          126.000000         4.245947523       331.297895755     -1263.751175307     -1259.672946400        13.180991080
       127          127.000000         3.814118997       297.603677593     -1263.050559094     -1259.404944393        12.560946784
       128          128.000000         4.053316983       316.267542128     -1263.495683273     -1259.611618105        13.258821322
       129          129.000000         3.587562347       279.926176660     -1262.854442377     -1259.436827095        12.599534991
       130          130.000000         3.722502339       290.455118699     -1262.968514200     -1259.416652266        12.609257987
       131          131.000000         4.491316679       350.443277205     -1264.012889781     -1259.692992693        12.603378212
       132          132.000000         3.760928485       293.453389699     -1263.002805755     -1259.413977374        12.584474695
       133          133.000000         3.766389455       293.879491947     -1263.103007793     -1259.509330775        12.557546884
       134          134.000000         3.981866951       310.692521474     -1263.416067827     -1259.607548515        13.183535323
       135          135.000000         3.813779495       297.577187342     -1263.056115717     -1259.416299714        13.241836169
       136          136.000000         4.346710789       339.160135642     -1263.855749874     -1259.683628972        13.206143183
       137          137.000000         3.706081118       289.173822650     -1263.035134558     -1259.504184144        13.220560336
       138          138.000000         3.520833961       274.719571134     -1262.819221567     -1259.474014258        13.199008516
       139          139.000000         4.284547551       334.309734225     -1263.835701678     -1259.727353763        13.197005116
       140          140.000000         3.918073734       305.714937940     -1263.256407467     -1259.515068709        13.844856618
       141          141.000000         3.995388894       311.747596087     -1263.428123168     -1259.609954973        13.220546980
       142          142.000000         3.839714500       299.600814003     -1263.316201947     -1259.654161246        13.826823480
       143          143.000000         3.549143340       276.928462704     -1262.849018499     -1259.477977297        13.849033005
       144          144.000000         4.358226548       340.058673971     -1263.950532012     -1259.770895070        13.799519085
       145          145.000000         3.940885471       307.494865812     -1263.329372557     -1259.567509150        14.629736616
       146          146.000000         3.565165920       278.178654121     -1262.867256761     -1259.481481033        13.858139492
       147          147.000000         4.022107207       313.832341752     -1263.431129812     -1259.588817598        12.583452509
       148          148.000000         3.812082832       297.444802088     -1263.011610769     -1259.379719451        13.265381936
       149          149.000000         4.236987709       330.598789743     -1263.596354619     -1259.539953221        13.227301790
       150          150.000000         4.005334035       312.523584073     -1263.349809464     -1259.525398548        13.181776987
       151          151.000000         3.398852204       265.201719335     -1262.549140651     -1259.331489881        12.566204103
       152          152.000000         4.135927207       322.713357416     -1263.535785292     -1259.581396588        12.552196228
       153          153.000000         4.017282363       313.455874415     -1263.247427970     -1259.412007988        12.585516163
       154          154.000000         3.811114644       297.369257441     -1263.046595130     -1259.417619568        13.200071362
       155          155.000000         3.925360984       306.283539065     -1263.301366771     -1259.558415751        12.569409187
       156          156.000000         3.472885282       270.978286916     -1262.648589257     -1259.358369666        13.197163055
       157          157.000000         4.106556779       320.421675581     -1263.516987610     -1259.593404557        13.887024537
       158          158.000000         4.139995264       323.030775131     -1263.544381940     -1259.587654005        13.791164806
       159          159.000000         3.454639804       269.554649763     -1262.607189252     -1259.336045588        13.193042802
       160          160.000000         3.866221339       301.669059032     -1263.231767738     -1259.549311114        13.238599020
       161          161.000000         3.779621343       294.911934486     -1263.049862277     -1259.454292816        13.209458706
       162          162.000000         3.928941127       306.562886309     -1263.215481259     -1259.470887769        13.191094339
       163          163.000000         4.097681478       319.729163780     -1263.553743101     -1259.640698068        13.229940950
       164          164.000000         3.373548744       263.227370132     -1262.557362484     -1259.368690522        13.184464449
       165          165.000000         3.851464462       300.517626499     -1263.134092898     -1259.467798445        12.598194294
       166          166.000000         4.094190262       319.456755205     -1263.448588448     -1259.539893536        12.534735037
       167          167.000000         3.666631927       286.095726633     -1262.855852937     -1259.375000291        12.593421545
       168          168.000000         3.892388488       303.710799194     -1263.250281130     -1259.543966780        12.569493172
       169          169.000000         3.548101890       276.847201669     -1262.748335015     -1259.386601089        12.562047704
       170          170.000000         3.839028275       299.547270025     -1263.104302001     -1259.451975075        12.569835160
       171          171.000000         4.256551757       332.125310652     -1263.689604983     -1259.620116246        13.205603833
       172          172.000000         3.527053856       275.204889947     -1262.712372389     -1259.372675158        12.543813122
       173          173.000000         3.712994227       289.713230698     -1263.036590889     -1259.511264248        12.602335812
       174          174.000000         3.871565107       302.086016446     -1263.268498304     -1259.584952457        13.182838571
       175          175.000000         3.745999958       292.288563850     -1263.009416718     -1259.451790370        13.173767368
       176          176.000000         4.086966537       318.893110718     -1263.566298678     -1259.668077742        13.823119618
       177          177.000000         3.508293752       273.741098187     -1262.768887809     -1259.449674795        13.214642495
       178          178.000000         3.622234549       282.631539273     -1262.888532546     -1259.455739708        13.187636757
       179          179.000000         4.196392599       327.431281298     -1263.646907593     -1259.640385175        13.822614715
       180          180.000000         3.738066508       291.669541727     -1262.989693058     -1259.441885866        13.790861780
       181          181.000000         3.828948393       298.760768661     -1263.209252683     -1259.570941587        13.848287170
       182          182.000000         3.690317593       287.943844450     -1263.069227299     -1259.569930923        13.806842199
       183          183.000000         3.635314435       283.652121507     -1262.910389401     -1259.466497417        13.189130171
       184          184.000000         4.256297144       332.105444042     -1263.815604312     -1259.751186914        13.853475258
       185          185.000000         3.735035413       291.433034979     -1263.101119244     -1259.558371525        13.807773719
       186          186.000000         3.597962128       280.737638762     -1262.977174858     -1259.571885764        14.454978856
       187          187.000000         3.990746115       311.385334658     -1263.494911284     -1259.697272791        15.067768884
       188          188.000000         3.784408152       295.285434071     -1263.122103080     -1259.531233274        15.115097256
       189          189.000000         4.091249748       319.227316217     -1263.578446094     -1259.681169906        14.423189687
       190          190.000000         3.789872071       295.711766423     -1263.147842855     -1259.552345273        13.828958690
       191          191.000000         3.509660047       273.847705819     -1262.832496442     -1259.517591626        15.706435671
       192          192.000000         4.175483946       325.799845019     -1263.595747864     -1259.615463776        13.194225549
       193          193.000000         3.924543057       306.219718779     -1263.203070707     -1259.474151013        13.843240023
       194          194.000000         3.799256059       296.443969459     -1263.093194262     -1259.489946008        13.193955683
       195          195.000000         3.890933970       303.597307722     -1263.231755954     -1259.537216350        12.544834277
       196          196.000000         3.612599979       281.879784095     -1262.798717623     -1259.382889187        13.177060003
       197          197.000000         4.129147457       322.184354956     -1263.520405379     -1259.588445638        13.194509106
       198          198.000000         3.934977419       307.033879177     -1263.265401684     -1259.528005021        13.158142885
       199          199.000000         3.498466079       272.974275806     -1262.708903813     -1259.408368840        13.192526237
       200          200.000000         3.947380119       308.001622773     -1263.409335986     -1259.660284520        13.820751848
       201          201.000000         3.826484186       298.568494327     -1263.179688798     -1259.551941950        13.843778785
       202          202.000000         3.925677931       306.308269478     -1263.341609705     -1259.615075074        13.793892542
       203          203.000000         3.896608782       304.040095407     -1263.301837092     -1259.604768433        13.225378848
       204          204.000000         3.401678296       265.422230343     -1262.598420747     -1259.396653728        13.822634911
       205          205.000000         3.921376295       305.972626358     -1263.329289081     -1259.608258383        13.808318762
       206          206.000000         3.962819072       309.206275525     -1263.285004697     -1259.522995175        13.772167211
       207          207.000000         3.622110685       282.621874557     -1262.848707725     -1259.427839456        14.435524508
       208          208.000000         3.834352597       299.182441606     -1263.157983913     -1259.525329843        13.159516037
       209          209.000000         3.593885907       280.419584120     -1262.851162722     -1259.459442863        13.839166284
       210          210.000000         3.913868421       305.386810593     -1263.220956265     -1259.509762759        13.138672855
       211          211.000000         4.091667156       319.259885261     -1263.481834472     -1259.593374473        13.157873856
       212          212.000000         3.518339285       274.524919437     -1262.755802039     -1259.441146246        13.133642077
       213          213.000000         3.811105117       297.368514096     -1263.186901648     -1259.579981560        12.577885075
       214          214.000000         3.889148645       303.458004461     -1263.210538618     -1259.526114438        13.196244557
       215          215.000000         3.816865807       297.818002508     -1263.084796791     -1259.473190960        13.323504346
       216          216.000000         4.010083374       312.894160020     -1263.423447631     -1259.619167819        13.160172319
       217          217.000000         3.534826273       275.811347091     -1262.749158906     -1259.420644797        13.219528723
       218          218.000000         3.761959142       293.533808583     -1262.981113742     -1259.426002139        12.539192745
       219          219.000000         4.091697726       319.262270498     -1263.410218436     -1259.525959256        12.530709849
       220          220.000000         3.703460188       288.969319694     -1262.842815675     -1259.347350007        12.585984362
       221          221.000000         3.864517217       301.536091827     -1263.114518558     -1259.458550806        12.593390712
       222          222.000000         3.765719008       293.827179117     -1262.980077092     -1259.423470469        12.527846636
       223          223.000000         3.806549809       297.013077772     -1262.977666326     -1259.380800710        12.577608330
       224          224.000000         4.181643074       326.280422399     -1263.495186729     -1259.523831042        12.546952237
       225          225.000000         3.696285062       288.409467268     -1262.845907003     -1259.360458879        12.578161590
       226          226.000000         3.741417177       291.930983884     -1262.947143053     -1259.417098295        12.545332125
       227          227.000000         4.017861400       313.501054866     -1263.313185898     -1259.507271554        12.579792106