#     Step Nr.          Time[fs]        Kin.[a.u.]          Temp[K]            Pot.[a.u.]        Cons Qty[a.u.]        UsedTime[s]
         0            0.000000         0.896367083       300.000000000     -3605.471947863     -3604.575105758         0.000000000
         1            1.000000         0.919864347       307.864165716     -3605.490874160     -3604.570116097        65.448502011
         2            2.000000         1.009520241       337.870586915     -3605.511803624     -3604.500937825         9.681359517
         3            3.000000         1.064624165       356.313005768     -3605.536038547     -3604.469557799         9.308829893
         4            4.000000         1.082266950       362.217768951     -3605.552035084     -3604.467343499         8.745313010
         5            5.000000         1.080295444       361.557936858     -3605.546797170     -3604.463460685         8.896793700
         6            6.000000         1.093117783       365.849372651     -3605.561621628     -3604.464798159         8.783794273
         7            7.000000         1.120604601       375.048779203     -3605.591235444     -3604.466199085         8.798894926
         8            8.000000         1.146969148       383.872579636     -3605.620493843     -3604.468292616         8.918747229
         9            9.000000         1.143588571       382.741153691     -3605.639382459     -3604.489690731         8.877604787
        10           10.000000         1.141600330       382.075720463     -3605.632143834     -3604.483508648         9.616667943
        11           11.000000         1.130244135       378.274980268     -3605.617378363     -3604.479111964         9.545027144
        12           12.000000         1.129886051       378.155135083     -3605.620635501     -3604.481686426         8.740418677
        13           13.000000         1.142589420       382.406753471     -3605.640569871     -3604.487812609         8.769799642
        14           14.000000         1.132236283       378.941720689     -3605.628441493     -3604.484871607         8.899951021
        15           15.000000         1.115136569       373.218714668     -3605.610809941     -3604.483131530         9.131743765
        16           16.000000         1.104878889       369.785630096     -3605.597290831     -3604.478625096         8.877777376
        17           17.000000         1.114784208       373.100785189     -3605.603634681     -3604.473770167         8.423514576
        18           18.000000         1.140418187       381.680075688     -3605.627503656     -3604.470640104         7.923369257
        19           19.000000         1.152832773       385.835042838     -3605.637468419     -3604.466746022         8.817835532
        20           20.000000         1.145075070       383.238661321     -3605.629352909     -3604.464883041         7.661433914
        21           21.000000         1.127274289       377.281019180     -3605.609657693     -3604.461445766         8.831601785
        22           22.000000         1.137083241       380.563921768     -3605.621501738     -3604.461893822         7.327110006
        23           23.000000         1.168110983       390.948420248     -3605.656715528     -3604.464413099         8.452315273
        24           24.000000         1.184491097       396.430587310     -3605.673262202     -3604.462821647         8.876275156
        25           25.000000         1.187251042       397.354297724     -3605.678236968     -3604.463204583         9.255552772
        26           26.000000         1.176118054       393.628261102     -3605.670339229     -3604.464556807         7.800530504
        27           27.000000         1.157227415       387.305860690     -3605.650085570     -3604.461283109         8.926932421
        28           28.000000         1.161906641       388.871924006     -3605.656189997     -3604.460764541         7.581545432
        29           29.000000         1.188423768       397.746790580     -3605.690207683     -3604.466251728         8.976877242
        30           30.000000         1.191013655       398.613585025     -3605.696436694     -3604.467806588         7.999119033
        31           31.000000         1.178887992       394.555316098     -3605.687183008     -3604.468559397         9.043819535
        32           32.000000         1.178298560       394.358042215     -3605.695788418     -3604.475609326         7.875734009
        33           33.000000         1.170764769       391.836600645     -3605.693972470     -3604.479157316         9.283393046
        34           34.000000         1.167156463       390.628957135     -3605.695514194     -3604.482121075         8.786092785
        35           35.000000         1.174545299       393.101884701     -3605.714240367     -3604.491246503         8.934717253
        36           36.000000         1.159986539       388.229296131     -3605.706331899     -3604.495672841         7.307878802
        37           37.000000         1.124105217       376.220380489     -3605.671556977     -3604.494592454         9.702352758
        38           38.000000         1.111194664       371.899421127     -3605.664936970     -3604.498743376         7.743796883
        39           39.000000         1.112157067       372.221522169     -3605.670930631     -3604.501653690         9.590971115
        40           40.000000         1.119577049       374.704873696     -3605.676809698     -3604.497994153         9.599405913
        41           41.000000         1.141533430       382.053330204     -3605.702733536     -3604.499826342         8.804347439
        42           42.000000         1.139359310       381.325686062     -3605.696147524     -3604.493270277         9.032677927
        43           43.000000         1.126458224       377.007894980     -3605.676443302     -3604.484349617         8.919814093
        44           44.000000         1.135315555       379.972304896     -3605.682683046     -3604.479635326         7.304380237
        45           45.000000         1.155618539       386.767394984     -3605.702644726     -3604.477187645         8.628285217
        46           46.000000         1.168201603       390.978749242     -3605.715714293     -3604.475552387         7.275769627
        47           47.000000         1.171823403       392.190908910     -3605.726320663     -3604.480413918         8.993063367
        48           48.000000         1.156862765       387.183817917     -3605.716942575     -3604.483898116         7.514567105
        49           49.000000         1.144530202       383.056302711     -3605.699540386     -3604.476773370         8.805513264
        50           50.000000         1.171048554       391.931578893     -3605.728368724     -3604.477037219         7.778004248
        51           51.000000         1.177871992       394.215276759     -3605.731519039     -3604.471305915         8.502401547
        52           52.000000         1.146093326       383.579455648     -3605.696152128     -3604.465697897         8.798358324
        53           53.000000         1.113466913       372.659907016     -3605.664106765     -3604.464338171         7.309844520
        54           54.000000         1.103614694       369.362523917     -3605.660609833     -3604.468818682         8.938088805
        55           55.000000         1.111122885       371.875397670     -3605.673992028     -3604.472851025         8.057080441
        56           56.000000         1.119728836       374.755674557     -3605.688290977     -3604.476717716         9.083901130
        57           57.000000         1.103682074       369.385075029     -3605.679665966     -3604.482345229         7.679612211
        58           58.000000         1.074884516       359.746984023     -3605.655532197     -3604.485278538         9.605631987
        59           59.000000         1.094409758       366.281776205     -3605.690893951     -3604.499422925         8.487395474
        60           60.000000         1.120882032       375.141631136     -3605.717711440     -3604.498066123         8.977851084
        61           61.000000         1.110686768       371.729436160     -3605.699155975     -3604.488010473         7.887616524
        62           62.000000         1.081159995       361.847288429     -3605.666254507     -3604.482989499         9.189563571
        63           63.000000         1.063585796       355.965479749     -3605.652030072     -3604.484751218         7.734770312
        64           64.000000         1.064793464       356.369667378     -3605.654765078     -3604.484727184         8.791934688
        65           65.000000         1.085919510       363.440223565     -3605.679948356     -3604.487239031         7.781311266
        66           66.000000         1.098468749       367.640256962     -3605.700723802     -3604.493911814         9.061687307
        67           67.000000         1.089741745       364.719465683     -3605.693927247     -3604.494297723         7.474327143
        68           68.000000         1.110899062       371.800487574     -3605.718414165     -3604.496084451         9.404323046
        69           69.000000         1.137286011       380.631785477     -3605.734165337     -3604.483876786         8.936776956
        70           70.000000         1.128319908       377.630971576     -3605.713693770     -3604.470784736         7.314510378
        71           71.000000         1.094590196       366.342166012     -3605.674220587     -3604.463482640         8.865651430
        72           72.000000         1.075748430       360.036122767     -3605.655457068     -3604.462042742         7.320975295
        73           73.000000         1.081494017       361.959080313     -3605.663805703     -3604.463143101         8.993396687
        74           74.000000         1.091319311       365.247452067     -3605.676099130     -3604.464101686         7.633657668
        75           75.000000         1.088880622       364.431261405     -3605.677130602     -3604.466057838         8.916715555
        76           76.000000         1.079389641       361.254778870     -3605.667191347     -3604.464103614         7.676917669
        77           77.000000         1.102616699       369.028510743     -3605.699263171     -3604.471432439         8.421181748
        78           78.000000         1.132024403       378.870807985     -3605.742903146     -3604.484105556         8.228923320
        79           79.000000         1.125766966       376.776541825     -3605.761621204     -3604.507492060         8.982830931
        80           80.000000         1.089534453       364.650088337     -3605.741839615     -3604.522371021         7.956806151
        81           81.000000         1.061829052       355.377525062     -3605.704697466     -3604.511401805         8.869129878
        82           82.000000         1.081113537       361.831739653     -3605.704769299     -3604.490661334         7.299360682
        83           83.000000         1.121153019       375.232326132     -3605.734574810     -3604.478850947         8.937216741
        84           84.000000         1.129043960       377.873300411     -3605.738454531     -3604.473213525         7.581806950
        85           85.000000         1.101114972       368.525906442     -3605.705545836     -3604.466604419         8.872435098
        86           86.000000         1.093581044       366.004418854     -3605.697465618     -3604.464441740         7.998471725
        87           87.000000         1.113438008       372.650233075     -3605.715750000     -3604.461231809         8.689234378
        88           88.000000         1.125393311       376.651485578     -3605.727938172     -3604.459787408         8.957053256
        89           89.000000         1.120212319       374.917488593     -3605.725860465     -3604.461188990         7.703196654
        90           90.000000         1.091838578       365.421242726     -3605.697566869     -3604.459575022         8.870626129
        91           91.000000         1.069562432       357.965766098     -3605.672736334     -3604.455353510         7.362657093
        92           92.000000         1.088435921       364.282426732     -3605.693816444     -3604.455887790         9.327902481
        93           93.000000         1.123356300       375.969729944     -3605.735015441     -3604.460440149         7.619630038
        94           94.000000         1.119829497       374.789364047     -3605.730879565     -3604.458060875         8.477331563
        95           95.000000         1.110530978       371.677295882     -3605.720472742     -3604.455172943         8.794614717
        96           96.000000         1.123426181       375.993117907     -3605.738610901     -3604.458615219         8.521937112
        97           97.000000         1.127881569       377.484266400     -3605.743457882     -3604.457171694         9.215407718
        98           98.000000         1.128370426       377.647879251     -3605.747865329     -3604.459229531         8.040850569
        99           99.000000         1.122442472       375.663885989     -3605.745651378     -3604.461065904         9.224609244
       100          100.000000         1.111107633       371.870292994     -3605.734986653     -3604.459853285         7.945811141
       101          101.000000         1.110768817       371.756896654     -3605.733732545     -3604.457048221         8.883867525
       102          102.000000         1.130766015       378.449645141     -3605.758985081     -3604.460380077         8.053129519
       103          103.000000         1.129433943       378.003821575     -3605.760840480     -3604.461607639         8.968102360
       104          104.000000         1.107767556       370.752421720     -3605.734239457     -3604.454713559         8.765873428
       105          105.000000         1.116370499       373.631691873     -3605.749551216     -3604.459459103         8.888289537
       106          106.000000         1.123790327       376.114991805     -3605.757251471     -3604.457746038         7.285224612
       107          107.000000         1.119435410       374.657469316     -3605.754791372     -3604.457627499         9.194483975
       108          108.000000         1.110167663       371.555699957     -3605.748083362     -3604.458170408         7.760979238
       109          109.000000         1.102706198       369.058464677     -3605.741439102     -3604.456972876         9.255821698
       110          110.000000         1.107434326       370.640895016     -3605.747054179     -3604.455836490         7.818418000
       111          111.000000         1.117361896       373.963496762     -3605.759100739     -3604.455907061         8.891872810
       112          112.000000         1.115316983       373.279096436     -3605.760507353     -3604.457289772         7.348588165
       113          113.000000         1.099249494       367.901560040     -3605.742423882     -3604.453209790         9.205096073
       114          114.000000         1.108831124       371.108381463     -3605.758216222     -3604.457353743         9.158491291
       115          115.000000         1.123381891       375.978294769     -3605.777416103     -3604.459903338         7.935840349
       116          116.000000         1.113715935       372.743250798     -3605.771173690     -3604.461210396         8.453541417
       117          117.000000         1.096084341       366.842233156     -3605.762480725     -3604.468048486         7.476692239
       118          118.000000         1.086279143       363.560587178     -3605.766643990     -3604.479936948         8.865214011
       119          119.000000         1.094052209       366.162110463     -3605.788101991     -3604.491540695         8.338380018
       120          120.000000         1.105866779       370.116261465     -3605.805732777     -3604.495252693         9.001022033
       121          121.000000         1.101718892       368.728028965     -3605.800708106     -3604.492258070         7.782919376
       122          122.000000         1.074941142       359.765935879     -3605.768233474     -3604.484468350         8.768226763
       123          123.000000         1.064615147       356.309987512     -3605.756637502     -3604.481142044         8.785608741
       124          124.000000         1.074757162       359.704360725     -3605.771961973     -3604.484271638         7.278626907
       125          125.000000         1.063778834       356.030086533     -3605.760911051     -3604.482149160         8.429519097
       126          126.000000         1.043285347       349.171238115     -3605.741802878     -3604.481519150         8.991870851
       127          127.000000         1.033950282       346.046938313     -3605.737492974     -3604.484565915         7.357724321
       128          128.000000         1.049111085       351.121021010     -3605.765062146     -3604.495000353         9.035812489
       129          129.000000         1.074097222       359.483489115     -3605.799397153     -3604.502344032         7.905549317
       130          130.000000         1.090834705       365.085262159     -3605.815595044     -3604.499761105         8.465155587
       131          131.000000         1.085898555       363.433210317     -3605.799344606     -3604.486389900         7.920117341
       132          132.000000         1.080124185       361.500619062     -3605.777544669     -3604.468315614         8.448479432
       133          133.000000         1.102676927       369.048668262     -3605.797234097     -3604.463386198         7.652460800
       134          134.000000         1.112884178       372.464875039     -3605.806847037     -3604.460688924         8.462368700
       135          135.000000         1.091780226       365.401713254     -3605.784499819     -3604.457345383         7.703665548
       136          136.000000         1.063118015       355.808920777     -3605.756313685     -3604.455765474         8.778132236
       137          137.000000         1.061363400       355.221678672     -3605.757907378     -3604.457089435         7.669764306
       138          138.000000         1.091076042       365.166033905     -3605.793603695     -3604.461024896         8.937031608
       139          139.000000         1.121800149       375.448910492     -3605.830542083     -3604.465129788         7.803573525
       140          140.000000         1.120918646       375.153885177     -3605.835488655     -3604.468809767         8.487778177
       141          141.000000         1.094246761       366.227223706     -3605.811787106     -3604.469648442         9.297181161
       142          142.000000         1.075976341       360.112400813     -3605.799315600     -3604.473354654         8.854527393
       143          143.000000         1.080778059       361.719460458     -3605.810206275     -3604.477363587         7.301942869
       144          144.000000         1.093206589       365.879094643     -3605.829423721     -3604.482054809         8.430701621
       145          145.000000         1.082683038       362.357027011     -3605.818119808     -3604.479171781         7.353824350
       146          146.000000         1.060366027       354.887873756     -3605.792392041     -3604.473689159         8.452462799
       147          147.000000         1.047099567       350.447797603     -3605.774201046     -3604.466730769         8.069764668
       148          148.000000         1.058103362       354.130595108     -3605.782143369     -3604.461643717         9.161551563
       149          149.000000         1.082229974       362.205393786     -3605.806966159     -3604.460284169         7.828304190
       150          150.000000         1.088654582       364.355609356     -3605.812044056     -3604.456851043         9.075345708
       151          151.000000         1.067858937       357.395633206     -3605.792275834     -3604.455803203         8.280572631
       152          152.000000         1.035100101       346.431764605     -3605.755342961     -3604.449607137         9.581172694
       153          153.000000         1.042196122       348.806691433     -3605.767036646     -3604.452215007         7.314521612
       154          154.000000         1.064805942       356.373843437     -3605.794497699     -3604.455054378         9.177066887
       155          155.000000         1.062039121       355.447832068     -3605.792775946     -3604.454070671         7.930107608
       156          156.000000         1.039570092       347.927800402     -3605.771892468     -3604.453653794         9.250842743
       157          157.000000         1.023961103       342.703716821     -3605.757774383     -3604.453184918         7.784891600
       158          158.000000         1.037769617       347.325209759     -3605.776733625     -3604.456386536         8.881021881
       159          159.000000         1.073017378       359.122082414     -3605.820276097     -3604.462691499         8.167952255
       160          160.000000         1.086919026       363.774745759     -3605.845443835     -3604.471919900         9.217207396
       161          161.000000         1.056600327       353.627553018     -3605.814956009     -3604.469724217         7.678116835
       162          162.000000         1.047120794       350.454902063     -3605.806232657     -3604.468492186         8.442738192
       163          163.000000         1.072873413       359.073899562     -3605.835193868     -3604.469699487         7.816499656
       164          164.000000         1.081999649       362.128307520     -3605.843820075     -3604.467162754         8.428136103
       165          165.000000         1.062633503       355.646762219     -3605.824632301     -3604.465309705         7.352026623
       166          166.000000         1.036459173       346.886624806     -3605.798997259     -3604.463860157         9.035406291
       167          167.000000         1.033233840       345.807156340     -3605.795854501     -3604.461986199         7.749907480
       168          168.000000         1.064657973       356.324320755     -3605.831200057     -3604.463929077         9.169198825
       169          169.000000         1.087254820       363.887130931     -3605.856697390     -3604.464798368         7.589251655
       170          170.000000         1.057823606       354.036965255     -3605.820335094     -3604.455836706         8.526085965
       171          171.000000         1.023877460       342.675722695     -3605.783553693     -3604.451030508         8.619639810
       172          172.000000         1.030804580       344.994121063     -3605.792188405     -3604.450798691         8.439033943
       173          173.000000         1.061401415       355.234401912     -3605.826600530     -3604.452643813         7.827809953
       174          174.000000         1.074266285       359.540072108     -3605.841726844     -3604.452892670         8.525298418
       175          175.000000         1.064038997       356.117159019     -3605.833481039     -3604.452854606         7.825441580
       176          176.000000         1.057038907       353.774338761     -3605.831004019     -3604.455371507         8.905563190
       177          177.000000         1.078823763       361.065388275     -3605.865201382     -3604.465761747         7.638211181
       178          178.000000         1.105547966       370.009559951     -3605.917479291     -3604.489240468         8.700639111
       179          179.000000         1.088504317       364.305317857     -3605.920670618     -3604.507379568         7.306085665
       180          180.000000         1.058801975       354.364410031     -3605.895377738     -3604.509729578         8.508064580
       181          181.000000         1.061061394       355.120602036     -3605.882936771     -3604.492993661         7.311160157
       182          182.000000         1.091195628       365.206057600     -3605.896844489     -3604.474697655         9.009493002
       183          183.000000         1.107570661       370.686524074     -3605.900191228     -3604.459546235         7.312194877
       184          184.000000         1.080355979       361.578197158     -3605.867128324     -3604.451573656         9.136321828
       185          185.000000         1.032989463       345.725367172     -3605.815569444     -3604.445323884         7.567915494
       186          186.000000         1.022295720       342.146339182     -3605.805224798     -3604.443676037         8.463102845
       187          187.000000         1.052549893       352.271936364     -3605.842886495     -3604.449073871         7.751002761
       188          188.000000         1.064115895       356.142895690     -3605.854903709     -3604.447475787         8.672632538
       189          189.000000         1.056192849       353.491176340     -3605.850337383     -3604.448777879         7.755422640
       190          190.000000         1.043225517       349.151213991     -3605.844246029     -3604.453619098         8.922980995
       191          191.000000         1.055367014       353.214782493     -3605.861250353     -3604.456449689        52.083442271
       192          192.000000         1.081585659       361.989751540     -3605.890200828     -3604.457111250         8.867938856
       193          193.000000         1.075833243       360.064508185     -3605.887372754     -3604.457939743         7.856888009
       194          194.000000         1.045359128       349.865299974     -3605.857862807     -3604.456838803         9.006324008
       195          195.000000         1.034410806       346.201068497     -3605.849942890     -3604.457843823         7.607983846
       196          196.000000         1.049060760       351.104178264     -3605.869859409     -3604.461087095         8.805284129
       197          197.000000         1.053829346       352.700149082     -3605.872612869     -3604.457031056         7.741008699
       198          198.000000         1.047255399       350.499952280     -3605.868308356     -3604.457261429         8.503631969
       199          199.000000         1.022295744       342.146347399     -3605.841782326     -3604.453688340         7.893680981
       200          200.000000         1.008459094       337.515437390     -3605.825506181     -3604.449286136         9.399711259
       201          201.000000         1.034079807       346.090288243     -3605.856188846     -3604.452382547         7.368853594
       202          202.000000         1.052483239       352.249628046     -3605.876450286     -3604.452236519         8.483828888
       203          203.000000         1.039663351       347.959012985     -3605.859573783     -3604.446170655         7.691111189
       204          204.000000         1.032731551       345.639047979     -3605.852432034     -3604.443972320         8.452598645
       205          205.000000         1.042557302       348.927572931     -3605.866582571     -3604.446308953         7.381907662
       206          206.000000         1.043070633       349.099376725     -3605.866298225     -3604.443514550         8.934484612
       207          207.000000         1.047128679       350.457541038     -3605.873574885     -3604.444732751         7.621092387
       208          208.000000         1.043829620       349.353397602     -3605.873628418     -3604.446084137         9.090557152
       209          209.000000         1.027437742       343.867293440     -3605.855823868     -3604.442689839         7.757554642
       210          210.000000         1.031996099       345.392903912     -3605.863813801     -3604.444154471         8.789469994
       211          211.000000         1.045834754       350.024484652     -3605.882272505     -3604.446792491         7.667983028
       212          212.000000         1.041363869       348.528149629     -3605.877059724     -3604.444059570         8.466180834
       213          213.000000         1.036797172       346.999747831     -3605.873696061     -3604.443280523         7.867035353
       214          214.000000         1.040545851       348.254371866     -3605.882466899     -3604.446322383         9.026815643
       215          215.000000         1.042573296       348.932925929     -3605.885581970     -3604.445424502         7.677914399
       216          216.000000         1.042448009       348.890994064     -3605.886575708     -3604.444555935         9.023523164
       217          217.000000         1.041924681       348.715844657     -3605.888762496     -3604.445278678         7.317576895
       218          218.000000         1.031731754       345.304431821     -3605.878931735     -3604.443663594         9.152601423
       219          219.000000         1.025176108       343.110359913     -3605.875395545     -3604.444723511         7.572596241
       220          220.000000         1.019139331       341.089945481     -3605.874174174     -3604.447594553         8.970504424
       221          221.000000         1.006792141       336.957534525     -3605.865802410     -3604.449647638         8.125050941
       222          222.000000         1.004652448       336.241412834     -3605.868347388     -3604.452430323         8.494342821
       223          223.000000         1.017941156       340.688934882     -3605.885397319     -3604.454285756         8.326180592
       224          224.000000         1.018672497       340.933703161     -3605.887458048     -3604.453700461         9.642119410
       225          225.000000         0.997971119       334.005276816     -3605.869582082     -3604.454634112         7.766879592
       226          226.000000         0.999488073       334.512977702     -3605.879136681     -3604.460805264         9.060437871
       227          227.000000         1.011069103       338.388966558     -3605.895586056     -3604.463801907         7.702647019