#     Step Nr.          Time[fs]        Kin.[a.u.]          Temp[K]            Pot.[a.u.]        Cons Qty[a.u.]        UsedTime[s]
         0            0.000000         3.843405441       300.000000000     -1250.915555981     -1247.071675518         0.000000000
         1            1.000000         3.597275622       280.788145617     -1250.586277080     -1246.987704994        44.696781725
         2            2.000000         3.609922394       281.775299208     -1250.661321434     -1247.049347158        11.414876297
         3            3.000000         3.503559936       273.473094819     -1250.506827035     -1247.000515316        11.415168770
         4            4.000000         3.602433746       281.190766932     -1250.592398858     -1246.986572571        11.406597838
         5            5.000000         3.837005154       299.500420557     -1250.898416908     -1247.057391653        11.409227297
         6            6.000000         3.633875460       283.644974393     -1250.593298265     -1246.954783933        11.463171348
         7            7.000000         3.769030680       294.194620187     -1250.763387854     -1246.989137506        11.410763845
         8            8.000000         3.928251991       306.622763371     -1251.045895664     -1247.111834110        12.094628617
         9            9.000000         3.818588217       298.062872257     -1250.884107336     -1247.059105371        12.712002240
        10           10.000000         3.860216871       301.312229191     -1250.999873689     -1247.132645126        12.744699232
        11           11.000000         3.627894508       283.178126525     -1250.672959045     -1247.037472749        12.100785121
        12           12.000000         3.703559563       289.084221211     -1250.710475707     -1246.998790132        12.038684666
        13           13.000000         4.065259154       317.316964070     -1251.149145687     -1247.075214976        12.091775469
        14           14.000000         3.958445310       308.979526371     -1250.914098343     -1246.946383822        12.071346380
        15           15.000000         3.989889958       311.433962813     -1250.973815367     -1246.974036252        12.083867602
        16           16.000000         3.976861802       310.417039965     -1250.974207124     -1246.986805162        12.132614166
        17           17.000000         3.897452019       304.218647619     -1250.844610431     -1246.935948706        12.119735710
        18           18.000000         4.071115896       317.774116610     -1251.105622592     -1247.022600905        11.410361812
        19           19.000000         3.832373271       299.138875369     -1250.804253874     -1246.959247933        11.484243877
        20           20.000000         3.765487765       293.918075157     -1250.694316122     -1246.915494058        11.453068152
        21           21.000000         4.048851406       316.036244538     -1251.059816256     -1246.996915119        12.090932660
        22           22.000000         4.018499716       313.667119739     -1250.993151504     -1246.959828031        12.106449597
        23           23.000000         4.075710422       318.132745896     -1251.092540497     -1247.001189654        11.458801508
        24           24.000000         3.912763622       305.413806751     -1250.943530052     -1247.014276877        12.076937057
        25           25.000000         3.720152451       290.379391996     -1250.741276791     -1247.003809416        12.116576366
        26           26.000000         3.957283358       308.888829359     -1251.083568118     -1247.108152742        12.101996981
        27           27.000000         3.834805618       299.328734128     -1250.915942535     -1247.062160832        12.089749210
        28           28.000000         3.755486017       293.137380994     -1250.842356160     -1247.067071578        12.095475614
        29           29.000000         3.875492963       302.504616470     -1251.045838863     -1247.149732152        12.146364026
        30           30.000000         3.796080575       296.306020767     -1250.877851071     -1247.060334931        12.048221514
        31           31.000000         3.961192827       309.193985927     -1251.083287675     -1247.099830758        12.118268311
        32           32.000000         3.826082269       298.647826340     -1250.843702313     -1246.994507165        11.455340147
        33           33.000000         3.569364278       278.609503896     -1250.547460343     -1246.954182228        12.110924199
        34           34.000000         3.796849298       296.366024041     -1250.908061911     -1247.086541532        12.099545553
        35           35.000000         3.816388295       297.891155624     -1250.848915603     -1247.007086882        12.088673458
        36           36.000000         3.880896092       302.926361861     -1250.910008758     -1247.002897815        12.070704743
        37           37.000000         3.950884833       308.389387444     -1251.010727306     -1247.032830956        11.506590076
        38           38.000000         3.761746429       293.626042323     -1250.730692743     -1246.941134324        11.453285657
        39           39.000000         3.957819743       308.930697291     -1250.979032119     -1246.992604938        11.425653368
        40           40.000000         3.948117483       308.173379860     -1250.976536342     -1246.998977579        12.139157712
        41           41.000000         3.736259289       291.636623735     -1250.691805168     -1246.925277254        12.098082490
        42           42.000000         3.873270595       302.331147757     -1250.899990634     -1246.995643739        11.442641303
        43           43.000000         3.864334818       301.633658765     -1250.833011649     -1246.936775880        12.064595520
        44           44.000000         4.027939994       314.403987965     -1250.985528860     -1246.924836886        11.436272070
        45           45.000000         4.113551246       321.086440801     -1251.109901314     -1246.962682026        12.102150083
        46           46.000000         3.820651409       298.223916333     -1250.737121745     -1246.881862777        11.418052964
        47           47.000000         3.919251417       305.920216587     -1250.876395510     -1246.921613335        11.500403032
        48           48.000000         3.941677737       307.670720430     -1250.902594400     -1246.924433542        11.426077291
        49           49.000000         3.833197497       299.203210978     -1250.795727329     -1246.925087083        11.506179996
        50           50.000000         3.931984383       306.914098141     -1250.959184173     -1246.988794211        11.428097405
        51           51.000000         3.791860571       295.976625103     -1250.755195887     -1246.923959134        11.455112822
        52           52.000000         3.938446275       307.418486128     -1250.946203725     -1246.967411826        11.445932344
        53           53.000000         4.105721374       320.475274057     -1251.178039298     -1247.030941721        11.437365383
        54           54.000000         3.832433946       299.143611390     -1250.803516621     -1246.928645938        12.098474428
        55           55.000000         3.841561015       299.856031883     -1250.875297703     -1246.990268508        12.146702990
        56           56.000000         3.805888201       297.071562614     -1250.826093444     -1246.975709594        11.440519325
        57           57.000000         3.803696112       296.900457446     -1250.800401843     -1246.951193277        11.418918319
        58           58.000000         3.984409604       311.006189549     -1251.053981888     -1247.023021519        11.441713996
        59           59.000000         3.762901291       293.716185949     -1250.746003992     -1246.935499928        11.414153375
        60           60.000000         3.799222958       296.551301902     -1250.818025692     -1246.970181658        11.406475574
        61           61.000000         3.953062992       308.559405357     -1251.037493520     -1247.034770564        12.117546782
        62           62.000000         3.785899586       295.511335725     -1250.802090878     -1246.965479462        11.418852687
        63           63.000000         3.825574768       298.608212911     -1250.903995421     -1247.026679748        11.452389009
        64           64.000000         3.703762239       289.100041253     -1250.742482040     -1246.985967585        11.431463115
        65           65.000000         3.693837312       288.325343340     -1250.688393804     -1246.940834234        11.445124246
        66           66.000000         3.963908933       309.405993718     -1251.042788748     -1247.024175626        11.384964779
        67           67.000000         3.799286410       296.556254669     -1250.778260593     -1246.923260597        11.412812531
        68           68.000000         3.772120315       294.435784057     -1250.750922353     -1246.922108680        11.401883557
        69           69.000000         3.850498985       300.553692044     -1250.866065690     -1246.957897962        11.643257506
        70           70.000000         3.751909802       292.858236728     -1250.704499249     -1246.893950341        11.393681943
        71           71.000000         3.901157883       304.507911726     -1251.003262066     -1247.042499864        12.751476511
        72           72.000000         3.764261410       293.822351063     -1250.832379236     -1247.007541889        12.707210258
        73           73.000000         3.685809610       287.698734864     -1250.702968575     -1246.955652172        12.009583041
        74           74.000000         3.940294760       307.562771072     -1251.017111841     -1247.014380170        12.053039238
        75           75.000000         3.836032839       299.424525805     -1250.832354656     -1246.932925549        11.401716791
        76           76.000000         3.829780271       298.936476744     -1250.874651637     -1246.980528018        12.044374011
        77           77.000000         3.808613091       297.284256021     -1250.848240287     -1246.974342902        12.030642316
        78           78.000000         3.677036186       287.013918393     -1250.674630828     -1246.931397299        12.045712911
        79           79.000000         3.912734639       305.411544456     -1250.975756486     -1246.995922411        12.074875385
        80           80.000000         3.842167360       299.903360581     -1250.875507423     -1246.965312310        12.016152918
        81           81.000000         3.726869367       290.903686121     -1250.725366963     -1246.929564802        12.043672256
        82           82.000000         3.890015605       303.638192524     -1250.958631698     -1246.998788565        12.066434816
        83           83.000000         3.805509120       297.041973191     -1250.810829707     -1246.934585682        11.393501341
        84           84.000000         3.905469252       304.844439017     -1250.953039254     -1246.975928632        11.438455768
        85           85.000000         3.886331158       303.350600175     -1250.991420078     -1247.032521811        11.364539817
        86           86.000000         3.679113047       287.176029456     -1250.714160041     -1246.961576925        11.994791642
        87           87.000000         3.898405386       304.293063415     -1251.037235706     -1247.064477688        12.137282975
        88           88.000000         3.890870582       303.704928428     -1251.005384376     -1247.039248269        11.383603156
        89           89.000000         3.827698792       298.774005262     -1250.922598178     -1247.018720942        12.034404658
        90           90.000000         3.911329410       305.301858190     -1251.111653536     -1247.123229613        12.062425606
        91           91.000000         3.741996896       292.084477151     -1250.857848083     -1247.037843360        12.057303332
        92           92.000000         3.883611448       303.138311128     -1251.028776562     -1247.066259582        12.030976042
        93           93.000000         3.928816741       306.666845400     -1251.081400238     -1247.072752356        11.375079460
        94           94.000000         3.705719875       289.252846052     -1250.787199160     -1247.000733164        11.378033571
        95           95.000000         3.831409350       299.063635796     -1250.998010601     -1247.084970256        12.095150471
        96           96.000000         3.803297855       296.869371177     -1250.947106672     -1247.061287526        11.446883619
        97           97.000000         3.812943547       297.622273171     -1250.919699556     -1247.023353500        11.430969082
        98           98.000000         3.914416178       305.542798243     -1251.090933631     -1247.092224580        11.412601307
        99           99.000000         3.690070757       288.031341962     -1250.780842746     -1247.005596794        11.993194960
       100          100.000000         3.813893596       297.696429974     -1250.904739726     -1247.004821771        11.466108009
       101          101.000000         3.931850855       306.903675512     -1251.021329948     -1247.002584136        11.474360988
       102          102.000000         3.796548275       296.342527471     -1250.818516174     -1246.934192846        11.435828798
       103          103.000000         3.899352806       304.367015054     -1250.986926384     -1246.998925462        11.398098752
       104          104.000000         3.786268208       295.540108852     -1250.822345918     -1246.946551847        11.418405697
       105          105.000000         3.821118592       298.260382644     -1250.873253192     -1246.961747523        11.397522360
       106          106.000000         3.992387668       311.628923572     -1251.100657899     -1247.016999530        11.408207119
       107          107.000000         3.785471846       295.477948180     -1250.833769752     -1246.956127110        11.974491537
       108          108.000000         3.856902920       301.053556182     -1250.940868323     -1246.990914692        12.019221053
       109          109.000000         3.914889473       305.579741692     -1251.005210407     -1246.996372947        12.018440880
       110          110.000000         3.830866913       299.021295424     -1250.840338476     -1246.914618473        12.023557976
       111          111.000000         3.984909626       311.045219184     -1251.097004552     -1247.016324939        12.043656893
       112          112.000000         3.833693508       299.241927453     -1250.886956321     -1246.956554688        12.087530129
       113          113.000000         3.822722426       298.385571140     -1250.868233310     -1246.947882456        12.090076953
       114          114.000000         4.009443564       312.960234725     -1251.121879584     -1247.013865266        11.976166554
       115          115.000000         3.859342850       301.244006795     -1250.895654364     -1246.936768863        12.002073504
       116          116.000000         3.933621509       307.041885274     -1251.017041736     -1246.982906066        12.035045110
       117          117.000000         3.917570270       305.788993363     -1251.020358415     -1247.001279206        11.973586231
       118          118.000000         3.796351358       296.327156931     -1250.799617900     -1246.900768086        12.021567963
       119          119.000000         3.976797061       310.411986562     -1251.063881246     -1246.983590589        11.964534715
       120          120.000000         3.846164704       300.215376413     -1250.879838605     -1246.929159843        12.025655277
       121          121.000000         3.816439465       297.895149779     -1250.843982496     -1246.922026530        11.350577362
       122          122.000000         3.954164539       308.645387493     -1251.033939301     -1246.973243140        11.357534178
       123          123.000000         3.818025711       298.018965447     -1250.833318817     -1246.907731067        11.979095690
       124          124.000000         3.922945217       306.208539009     -1250.997298009     -1246.965763824        11.373807281
       125          125.000000         3.869116433       302.006891432     -1250.943236104     -1246.964485342        11.324394882
       126          126.000000         3.716136362       290.065913089     -1250.785906545     -1246.959116001        12.016031832
       127          127.000000         3.904106640       304.738079290     -1251.060240120     -1247.044472125        12.002825834
       128          128.000000         3.805031980       297.004729621     -1250.906759600     -1246.989042889        11.970200852
       129          129.000000         3.800951094       296.686192917     -1250.898188666     -1246.983548997        11.352963991
       130          130.000000         3.910497206       305.236899879     -1251.058383018     -1247.033185793        11.373687059
       131          131.000000         3.759268699       293.432641162     -1250.834244623     -1246.959263743        12.008400366
       132          132.000000         3.901298438       304.518882828     -1251.035787967     -1247.017776641        12.012345210
       133          133.000000         3.857549895       301.104056316     -1250.984038894     -1247.008756365        11.983059824
       134          134.000000         3.695215900       288.432950132     -1250.765671875     -1246.951731571        11.388168350
       135          135.000000         3.866798348       301.825951533     -1251.015840254     -1247.029346488        11.977026738
       136          136.000000         3.779514782       295.012964907     -1250.876181929     -1246.975992510        12.050209694
       137          137.000000         3.821596843       298.297712899     -1250.924489802     -1246.981255311        11.968161866
       138          138.000000         3.926588669       306.492931475     -1251.084766391     -1247.035562218        12.013505995
       139          139.000000         3.767189649       294.050917035     -1250.848350188     -1246.957565075        11.958315656
       140          140.000000         3.919178992       305.914563401     -1251.066650983     -1247.022906066        11.964985169
       141          141.000000         3.891573797       303.759818473     -1251.051217134     -1247.034081568        12.005233012
       142          142.000000         3.767663615       294.087912869     -1250.837938954     -1246.943731010        12.036022089
       143          143.000000         3.936524380       307.268471185     -1251.099278394     -1247.035230459        11.999645509
       144          144.000000         3.829912928       298.946831370     -1250.922854304     -1246.964420156        12.005852155
       145          145.000000         3.881520059       302.975066129     -1250.999337342     -1246.988305528        12.083192736
       146          146.000000         3.960662828       309.152616463     -1251.083655230     -1246.992466238        11.963607505
       147          147.000000         3.745457769       292.354618298     -1250.787616497     -1246.910621146        11.965687566
       148          148.000000         3.860857253       301.362214708     -1251.005335876     -1247.011955486        11.999733210
       149          149.000000         3.826260320       298.661724210     -1250.986809909     -1247.027032236        11.953716069
       150          150.000000         3.724996703       290.757513858     -1250.796056032     -1246.936571903        11.955650717
       151          151.000000         3.872628230       302.281007524     -1251.043804549     -1247.035731873        12.685665563
       152          152.000000         3.735987470       291.615406696     -1250.823599171     -1246.951211703        12.056487300
       153          153.000000         3.795314466       296.246221502     -1250.886488148     -1246.953845872        11.994255461
       154          154.000000         3.885268139       303.267625395     -1251.019674748     -1246.996143174        12.024826817
       155          155.000000         3.691959657       288.178781576     -1250.766370361     -1246.935224652        11.990612641
       156          156.000000         3.804248289       296.943558004     -1250.917371547     -1246.973048476        12.040423885
       157          157.000000         3.768893926       294.183945735     -1250.863322027     -1246.953468523        11.961531349
       158          158.000000         3.731955856       291.300715979     -1250.795079292     -1246.921303868        11.390891999
       159          159.000000         3.929333115       306.707151410     -1251.056623340     -1246.984610523        11.329965971
       160          160.000000         3.792824328       296.051851846     -1250.839841642     -1246.903463601        11.986504652
       161          161.000000         3.855052777       300.909141821     -1250.943738746     -1246.944273652        12.021466382
       162          162.000000         3.946424114       308.041202596     -1251.051941126     -1246.960227632        11.984558932
       163          163.000000         3.791734480       295.966782970     -1250.823053792     -1246.885147456        11.977968276
       164          164.000000         3.925573626       306.413701561     -1251.031595516     -1246.958975054        11.370360471
       165          165.000000         3.844452541       300.081732160     -1250.881098955     -1246.888709526        11.381524600
       166          166.000000         3.776492099       294.777027042     -1250.758016637     -1246.832716179        11.353802018
       167          167.000000         3.948983076       308.240944395     -1251.012956190     -1246.914290870        11.352208883
       168          168.000000         3.803632864       296.895520556     -1250.768965551     -1246.814762412        11.397344425
       169          169.000000         3.852789357       300.732468848     -1250.841969628     -1246.837738247        11.943285957
       170          170.000000         3.889401335       303.590245200     -1250.903814873     -1246.862090664        11.359928280
       171          171.000000         3.721569116       290.489970892     -1250.636338865     -1246.761579120        11.325930543
       172          172.000000         3.880548280       302.899213156     -1250.865095261     -1246.830508007        11.330348074
       173          173.000000         3.821414381       298.283470671     -1250.766006611     -1246.789694053        11.359278992
       174          174.000000         3.761521661       293.608497893     -1250.669116739     -1246.751857628        11.423796803
       175          175.000000         3.911522161       305.316903521     -1250.890790307     -1246.822694955        11.955297552
       176          176.000000         3.756611245       293.225211518     -1250.665977069     -1246.751953779        11.974846095
       177          177.000000         3.828690575       298.851419631     -1250.780833879     -1246.793915422        11.946735866
       178          178.000000         3.879104416       302.786511233     -1250.849192931     -1246.811037504        12.012180410
       179          179.000000         3.723364648       290.630122506     -1250.630100141     -1246.746872999        11.311271787
       180          180.000000         3.881331676       302.960361770     -1250.834314029     -1246.792326660        11.363241352
       181          181.000000         3.815648198       297.833386825     -1250.750879234     -1246.773772921        11.359717995
       182          182.000000         3.773956532       294.579111415     -1250.694253474     -1246.758054921        11.415794611
       183          183.000000         3.909614479       305.167997894     -1250.922479792     -1246.849841637        11.326376960
       184          184.000000         3.733364157       291.410642000     -1250.678903723     -1246.781735383        11.352424309
       185          185.000000         3.782215925       295.223804707     -1250.771777658     -1246.825008591        11.405656859
       186          186.000000         3.797427278       296.411138731     -1250.783966453     -1246.821246001        11.350761719
       187          187.000000         3.663626606       285.967223203     -1250.604219101     -1246.774585684        11.363648281
       188          188.000000         3.834123297       299.275475028     -1250.872381820     -1246.871564783        11.358783573
       189          189.000000         3.745906862       292.389672565     -1250.774105900     -1246.860821206        11.320390612
       190          190.000000         3.712395414       289.773910437     -1250.728280811     -1246.847854318        11.387157373
       191          191.000000         3.854891449       300.896549264     -1250.933685032     -1246.910123492        11.358369730
       192          192.000000         3.696398168       288.525233010     -1250.672138669     -1246.806439923        11.411072820
       193          193.000000         3.776353469       294.766206189     -1250.774072597     -1246.827819672        11.378559172
       194          194.000000         3.788030183       295.677641171     -1250.781813699     -1246.823294739        11.341974162
       195          195.000000         3.667525652       286.271566310     -1250.607095748     -1246.768516328        11.347704887
       196          196.000000         3.855345699       300.932006057     -1250.862851962     -1246.835911446        11.344537415
       197          197.000000         3.769472199       294.229083289     -1250.739772985     -1246.798163788        11.372635901
       198          198.000000         3.739983247       291.927300171     -1250.726875851     -1246.814236563        11.375745647
       199          199.000000         3.859837165       301.282590953     -1250.879398681     -1246.846398827        11.343778558
       200          200.000000         3.702531088       289.003942843     -1250.635082107     -1246.758889426        11.392160803
       201          201.000000         3.798348628       296.483055427     -1250.716701546     -1246.744219649        11.432976209
       202          202.000000         3.808070871       297.241932600     -1250.754546333     -1246.771876537        12.017908797
       203          203.000000         3.691876799       288.172314012     -1250.582596425     -1246.715673062        11.331965826
       204          204.000000         3.864902829       301.677995329     -1250.826776887     -1246.786400861        11.377607055
       205          205.000000         3.761900949       293.638103445     -1250.668259344     -1246.730458603        11.348134361
       206          206.000000         3.741537845       292.048645559     -1250.629210718     -1246.711368754        11.401535057
       207          207.000000         3.858993264       301.216719616     -1250.779032122     -1246.743343381        11.328095526
       208          208.000000         3.701339237       288.910911992     -1250.551439214     -1246.673020166        11.395507298
       209          209.000000         3.805579690       297.047481533     -1250.689198442     -1246.706180118        11.351394683
       210          210.000000         3.811018785       297.472034335     -1250.736475860     -1246.747665508        11.377836488
       211          211.000000         3.712018771       289.744511284     -1250.592399955     -1246.702251059        11.355062470
       212          212.000000         3.880442486       302.890955292     -1250.839164206     -1246.780270532        11.365143903
       213          213.000000         3.761648934       293.618432240     -1250.668105732     -1246.727683260        11.347225763
       214          214.000000         3.746802955       292.459617791     -1250.707515895     -1246.781637210        11.376821689
       215          215.000000         3.836949380       299.496067136     -1250.856936666     -1246.840623863        11.365953252
       216          216.000000         3.678505382       287.128597661     -1250.627833892     -1246.769688162        11.362465054
       217          217.000000         3.806376790       297.109699860     -1250.829483421     -1246.843216704        11.341761097
       218          218.000000         3.807360769       297.186505103     -1250.828367540     -1246.840874194        11.392684594
       219          219.000000         3.706297147       289.297905485     -1250.662325057     -1246.775666145        11.417262994
       220          220.000000         3.867727710       301.898493601     -1250.892779589     -1246.844480495        11.425992824
       221          221.000000         3.768438823       294.148422314     -1250.743552394     -1246.794333105        11.364537612
       222          222.000000         3.797562497       296.421693308     -1250.777813296     -1246.799275466        11.398117140
       223          223.000000         3.882751028       303.071150354     -1250.920974308     -1246.857058517        11.356246740
       224          224.000000         3.702751655       289.021159342     -1250.665233824     -1246.781129636        11.359663025
       225          225.000000         3.831068254       299.037011259     -1250.843372540     -1246.830785977        11.344464175
       226          226.000000         3.843787378       300.029812369     -1250.845238431     -1246.819769673        11.378256649
       227          227.000000         3.752427091       292.898614160     -1250.704725665     -1246.770458769        11.350713164