#     Step Nr.          Time[fs]        Kin.[a.u.]          Temp[K]            Pot.[a.u.]        Cons Qty[a.u.]        UsedTime[s]
         0            0.000000         3.844830508       300.000000000     -1262.949043757     -1259.103738227         0.000000000
         1            1.000000         3.779221738       294.880754538     -1262.854476654     -1259.073934074        50.919910806
         2            2.000000         3.760578805       293.426105242     -1262.840105156     -1259.077380702        13.471962062
         3            3.000000         3.783440806       295.209955135     -1262.875547410     -1259.089151163        12.802337988
         4            4.000000         3.765763673       293.830664143     -1262.847064551     -1259.077548059        12.835753066
         5            5.000000         3.830885317       298.911900737     -1262.946745675     -1259.111318685        12.826846985
         6            6.000000         3.807794998       297.110235896     -1262.920422856     -1259.107297828        12.870530863
         7            7.000000         3.829073265       298.770511991     -1262.928783360     -1259.093598068        13.487308649
         8            8.000000         3.945252716       307.835628199     -1263.146376916     -1259.194216752        14.135558647
         9            9.000000         3.901780222       304.443606572     -1263.081150050     -1259.171643037        14.166773494
        10           10.000000         3.860359232       301.211657362     -1263.058627244     -1259.189719056        14.137493012
        11           11.000000         3.817677481       297.881334931     -1262.995687276     -1259.168644369        13.455357278
        12           12.000000         3.799609610       296.471555873     -1262.960132746     -1259.150352328        13.467793972
        13           13.000000         3.920796871       305.927415703     -1263.114212829     -1259.182434293        13.466966808
        14           14.000000         3.915750823       305.533688532     -1263.108194953     -1259.180626998        13.479440938
        15           15.000000         3.893167925       303.771616184     -1263.053653062     -1259.147821363        13.449428348
        16           16.000000         3.951488436       308.322181781     -1263.127695215     -1259.162680346        13.440434882
        17           17.000000         3.913927581       305.391426712     -1263.052541963     -1259.124203512        13.432681139
        18           18.000000         3.921127624       305.953223348     -1263.068889268     -1259.132454320        13.495579903
        19           19.000000         3.891312199       303.626819757     -1263.040685784     -1259.133157667        12.773450349
        20           20.000000         3.830585431       298.888501565     -1262.956226755     -1259.108518605        12.772059333
        21           21.000000         3.951551738       308.327121045     -1263.110808639     -1259.141218383        12.791607169
        22           22.000000         3.990828884       311.391792824     -1263.156985267     -1259.147163118        13.435183039
        23           23.000000         3.957912305       308.823415995     -1263.116767759     -1259.138878274        13.408840660
        24           24.000000         3.959736231       308.965731171     -1263.118452157     -1259.137734342        13.422289199
        25           25.000000         3.900601717       304.351651542     -1263.034605712     -1259.112003279        12.757315441
        26           26.000000         3.937778375       307.252428913     -1263.112309328     -1259.151500014        13.447436361
        27           27.000000         3.909236951       305.025431596     -1263.110320755     -1259.177004223        14.054689139
        28           28.000000         3.813716954       297.572307506     -1263.015773858     -1259.176934023        14.053350490
        29           29.000000         3.880466109       302.780533540     -1263.113704392     -1259.207078217        13.406229135
        30           30.000000         3.905620155       304.743224454     -1263.149006709     -1259.216170866        14.140771125
        31           31.000000         3.912382734       305.270887188     -1263.063312191     -1259.122642110        13.415070254
        32           32.000000         3.896513437       304.032655946     -1263.061211718     -1259.135327623        13.411504969
        33           33.000000         3.772995526       294.394942853     -1262.913979512     -1259.110542009        13.427701073
        34           34.000000         3.818515866       297.946751450     -1262.975086629     -1259.125078749        12.804921542
        35           35.000000         3.880791179       302.805897751     -1263.046649944     -1259.133307052        12.788972529
        36           36.000000         3.827289929       298.631363947     -1262.950674825     -1259.089768445        12.833256183
        37           37.000000         3.846322450       300.116411544     -1263.038604652     -1259.157607996        13.412297231
        38           38.000000         3.818051368       297.910508142     -1262.966150068     -1259.112369477        12.794890369
        39           39.000000         3.847635568       300.218869994     -1263.030311941     -1259.145896501        13.444600867
        40           40.000000         3.901782393       304.443775976     -1263.110007264     -1259.170382384        12.762246014
        41           41.000000         3.793492356       295.994245870     -1262.951951727     -1259.119555133        12.792907192
        42           42.000000         3.798137909       296.356723723     -1262.947377596     -1259.109296164        12.795738047
        43           43.000000         3.854205139       300.731472833     -1263.018471604     -1259.123284234        12.758924024
        44           44.000000         3.861573608       301.306411263     -1262.924619566     -1259.021016669        12.782844332
        45           45.000000         3.917397887       305.662203723     -1262.999550926     -1259.039064482        12.761379169
        46           46.000000         3.857985008       301.026404096     -1262.946001521     -1259.043858503        12.751362919
        47           47.000000         3.861447287       301.296554809     -1262.926454870     -1259.019784701        12.773228309
        48           48.000000         3.939059042       307.352355350     -1263.061208073     -1259.075846012        12.740434944
        49           49.000000         3.852707095       300.614585187     -1262.946183123     -1259.046080465        12.749088406
        50           50.000000         3.832314604       299.023423427     -1262.954729815     -1259.073940158        12.765866688
        51           51.000000         3.841038820       299.704146532     -1262.916972334     -1259.026383785        12.777748279
        52           52.000000         3.845985952       300.090155621     -1262.878250567     -1258.981640620        12.759028454
        53           53.000000         3.928810256       306.552674860     -1262.969943082     -1258.989421634        12.113264234
        54           54.000000         3.841822739       299.765313248     -1262.875993927     -1258.981362373        12.730501520
        55           55.000000         3.793555893       295.999203498     -1262.838554349     -1258.991112425        12.767882885
        56           56.000000         3.862010118       301.340470768     -1262.904803081     -1258.987835957        12.089177389
        57           57.000000         3.851379465       300.510994473     -1262.879415497     -1258.972000327        12.781377364
        58           58.000000         3.891664593       303.654315910     -1262.913360259     -1258.964576432        12.088805786
        59           59.000000         3.844508389       299.974866014     -1262.864774020     -1258.962058615        12.094807005
        60           60.000000         3.791391263       295.830304230     -1262.820217648     -1258.969547938        12.071404362
        61           61.000000         3.892418113       303.713110696     -1262.987435126     -1259.034669393        12.140315783
        62           62.000000         3.853858608       300.704434156     -1262.945312584     -1259.030024632        12.088543621
        63           63.000000         3.795925253       296.184077180     -1262.893290224     -1259.034868318        12.117023547
        64           64.000000         3.815076921       297.678421398     -1262.919130899     -1259.040505541        12.101704846
        65           65.000000         3.797593682       296.314259367     -1262.880747640     -1259.018562665        12.779775601
        66           66.000000         3.889578410       303.491537678     -1262.995612526     -1259.040398922        12.132723732
        67           67.000000         3.886911676       303.283460814     -1262.988088348     -1259.034481320        12.749467748
        68           68.000000         3.798234149       296.364233008     -1262.931826066     -1259.065845175        12.765939663
        69           69.000000         3.846284838       300.113476769     -1262.993364263     -1259.078295372        12.742587076
        70           70.000000         3.816660790       297.802005684     -1262.934402636     -1259.047922307        12.772696057
        71           71.000000         3.800901506       296.572358445     -1263.005482171     -1259.133739741        12.764604629
        72           72.000000         3.812494148       297.476895766     -1263.047304096     -1259.162958998        12.766618747
        73           73.000000         3.762911864       293.608146494     -1262.972171479     -1259.136414319        12.740464755
        74           74.000000         3.863035742       301.420496966     -1263.111719726     -1259.174853124        12.768001119
        75           75.000000         3.881139245       302.833056261     -1263.154102589     -1259.198132909        12.814305538
        76           76.000000         3.802009091       296.658779817     -1263.110447513     -1259.232614398        14.036334353
        77           77.000000         3.837993757       299.466549836     -1263.187445405     -1259.272648252        14.086966866
        78           78.000000         3.806729410       297.027091431     -1263.060268298     -1259.175761533        12.747735635
        79           79.000000         3.839133572       299.555486000     -1263.097836005     -1259.179960017        13.387401771
        80           80.000000         3.883159422       302.990684231     -1263.118877698     -1259.156005090        12.772404522
        81           81.000000         3.801096742       296.587592100     -1262.999357727     -1259.117580421        12.752628960
        82           82.000000         3.868137481       301.818569591     -1263.102354279     -1259.152578936        12.739490830
        83           83.000000         3.893129770       303.768639055     -1263.146730108     -1259.170993269        12.763806146
        84           84.000000         3.823022218       298.298367843     -1263.070522040     -1259.163925154        12.743094553
        85           85.000000         3.823960670       298.371592354     -1263.087071393     -1259.178583003        13.422269363
        86           86.000000         3.758835293       293.290064562     -1262.997492952     -1259.153193902        13.410771210
        87           87.000000         3.808044563       297.129708666     -1263.067068690     -1259.172643756        13.384817044
        88           88.000000         3.860621485       301.232120128     -1263.171429580     -1259.223509343        13.434771416
        89           89.000000         3.748932674       292.517394377     -1263.050526899     -1259.213388387        13.425384738
        90           90.000000         3.753332198       292.860675367     -1263.026404192     -1259.183991059        12.775883542
        91           91.000000         3.754102494       292.920779170     -1262.979813379     -1259.135775438        12.764762829
        92           92.000000         3.738204505       291.680309192     -1262.952205364     -1259.123233882        12.757517856
        93           93.000000         3.773306050       294.419172100     -1263.045537605     -1259.180653671        12.804151473
        94           94.000000         3.673313297       286.617052883     -1262.912279755     -1259.146604737        12.809135668
        95           95.000000         3.702299389       288.878746242     -1262.945792311     -1259.150387708        12.810916886
        96           96.000000         3.809972129       297.280110564     -1263.107526492     -1259.203720726        12.769714254
        97           97.000000         3.765496152       293.809790393     -1263.017241237     -1259.157190253        12.797260388
        98           98.000000         3.785203873       295.347521659     -1263.047270340     -1259.166809611        12.841609763
        99           99.000000         3.743162800       292.067189365     -1263.004930564     -1259.165826817        12.783896681
       100          100.000000         3.731687521       291.171809503     -1262.963920921     -1259.135634884        12.800231823
       101          101.000000         3.843435270       299.891133922     -1263.136712938     -1259.196034641        12.769408149
       102          102.000000         3.777742806       294.765358157     -1263.021142065     -1259.145514926        12.795049911
       103          103.000000         3.770070519       294.166713787     -1263.037772874     -1259.169197107        13.413289591
       104          104.000000         3.832842886       299.064643661     -1263.116129471     -1259.184171366        13.445457967
       105          105.000000         3.822230237       298.236572113     -1263.039729000     -1259.117775952        12.797242918
       106          106.000000         3.889464968       303.482686153     -1263.121139910     -1259.131344990        12.779683109
       107          107.000000         3.820856154       298.129356746     -1263.012020433     -1259.090224105        12.769817462
       108          108.000000         3.764098964       293.700772145     -1262.939584939     -1259.073952223        12.804129255
       109          109.000000         3.874880421       302.344699954     -1263.077731132     -1259.100733351        12.764925028
       110          110.000000         3.859762508       301.165096889     -1263.040542628     -1259.078071203        12.768414804
       111          111.000000         3.868485270       301.845706438     -1263.056047410     -1259.084260818        12.845458869
       112          112.000000         3.867517432       301.770189095     -1263.064321654     -1259.092907645        12.807900773
       113          113.000000         3.812783638       297.499483799     -1262.974654686     -1259.057382556        12.797560898
       114          114.000000         3.912851273       305.307445751     -1263.078454564     -1259.060524185        12.801706882
       115          115.000000         3.879909315       302.737088678     -1263.005348325     -1259.019756015        12.807369158
       116          116.000000         3.792802507       295.940419096     -1262.882796422     -1258.983712916        12.803667518
       117          117.000000         3.841905010       299.771732615     -1262.965411379     -1259.016639515        12.827097453
       118          118.000000         3.828129953       298.696908314     -1262.918609872     -1258.983028832        12.171192484
       119          119.000000         3.884554705       303.099553819     -1262.981211661     -1258.988622160        12.160198298
       120          120.000000         3.872801411       302.182481366     -1262.993550786     -1259.012123384        12.145063689
       121          121.000000         3.749262414       292.543123011     -1262.822735934     -1258.964265992        12.875038939
       122          122.000000         3.814984265       297.671191755     -1262.936610843     -1259.011858243        12.828846276
       123          123.000000         3.822339114       298.245067466     -1262.960366948     -1259.027702685        12.852185594
       124          124.000000         3.781341240       295.046132582     -1262.894118531     -1259.001905431        12.823231133
       125          125.000000         3.808294099       297.149179171     -1262.972072745     -1259.052373933        12.836193256
       126          126.000000         3.736679026       291.561280913     -1262.862473817     -1259.013871805        12.131703505
       127          127.000000         3.806505433       297.009615267     -1262.931583742     -1259.012656836        12.171815439
       128          128.000000         3.855193706       300.808607661     -1262.980766351     -1259.012654782        12.135928305
       129          129.000000         3.754174050       292.926362429     -1262.843779213     -1258.976197671        12.152838687
       130          130.000000         3.793361715       295.984052373     -1262.938602088     -1259.031363332        12.160121010
       131          131.000000         3.767693914       293.981274782     -1262.929695322     -1259.047667293        12.167816224
       132          132.000000         3.778472606       294.822302131     -1262.934985878     -1259.041738811        12.801379587
       133          133.000000         3.854304124       300.739196356     -1263.030979769     -1259.061468870        12.116431324
       134          134.000000         3.759848443       293.369117435     -1262.898120981     -1259.022638273        12.155720781
       135          135.000000         3.793887698       296.025093156     -1262.951038038     -1259.041106979        12.146347675
       136          136.000000         3.841405805       299.732781176     -1263.045236532     -1259.087384999        12.788162258
       137          137.000000         3.780914938       295.012869622     -1262.959100817     -1259.061343125        12.806962288
       138          138.000000         3.813701099       297.571070373     -1263.049648906     -1259.118721105        12.796777673
       139          139.000000         3.759405344       293.334543820     -1262.986177100     -1259.109171666        12.800086058
       140          140.000000         3.771937099       294.312357155     -1263.017103273     -1259.127211052        12.807567691
       141          141.000000         3.869188963       301.900613446     -1263.163247684     -1259.175756905        13.445579150
       142          142.000000         3.785322350       295.356766037     -1263.027573778     -1259.123603025        12.811478486
       143          143.000000         3.799230361       296.441964272     -1263.124776831     -1259.206565041        14.095976034
       144          144.000000         3.836362357       299.339256887     -1263.176425182     -1259.220755615        13.461891791
       145          145.000000         3.811885617       297.429414002     -1263.140108672     -1259.208593704        13.444467502
       146          146.000000         3.888337307       303.394698294     -1263.218024271     -1259.209738307        12.776402470
       147          147.000000         3.822075300       298.224482818     -1263.101791680     -1259.159443789        12.799088023
       148          148.000000         3.801057712       296.584546765     -1263.078672890     -1259.157026613        12.805775050
       149          149.000000         3.900867832       304.372415680     -1263.173272204     -1259.151503205        12.803155091
       150          150.000000         3.851888486       300.550711741     -1263.085201652     -1259.112090673        12.793660815
       151          151.000000         3.876183616       302.446384150     -1263.129926966     -1259.132198159        13.425816470
       152          152.000000         3.875054155       302.358255881     -1263.100888915     -1259.103961097        12.794720312
       153          153.000000         3.834043476       299.158321913     -1263.039076306     -1259.082828286        12.803528255
       154          154.000000         3.932005340       306.801977254     -1263.211362031     -1259.156818327        12.860989633
       155          155.000000         3.860508063       301.223270177     -1263.118454312     -1259.135060457        13.408334371
       156          156.000000         3.795954427       296.186353507     -1263.108441867     -1259.189257815        13.411448774
       157          157.000000         3.847444570       300.203966955     -1263.146546906     -1259.175537141        13.423440182
       158          158.000000         3.817656949       297.879732824     -1263.067990562     -1259.126434185        12.797811760
       159          159.000000         3.884214345       303.072996611     -1263.168217847     -1259.159772049        12.782722698
       160          160.000000         3.851778277       300.542112483     -1263.135445215     -1259.159097326        13.451464445
       161          161.000000         3.756828767       293.133501677     -1262.953534354     -1259.071804267        12.835570493
       162          162.000000         3.835225870       299.250580390     -1262.998721383     -1259.038277066        12.773692353
       163          163.000000         3.794252842       296.053584159     -1262.938017657     -1259.018233181        12.767383368
       164          164.000000         3.765591946       293.817264843     -1262.937813076     -1259.046389438        12.777135751
       165          165.000000         3.797431166       296.301578764     -1262.943397210     -1259.019848884        12.807797183
       166          166.000000         3.750973902       292.676665001     -1262.865259019     -1258.987894777        12.810440386
       167          167.000000         3.851869655       300.549242433     -1262.959843032     -1258.981323364        12.786132688
       168          168.000000         3.860009381       301.184359593     -1262.964353260     -1258.977431832        12.158056168
       169          169.000000         3.764042920       293.696399284     -1262.850701097     -1258.959487090        12.114983195
       170          170.000000         3.821684492       298.193989351     -1262.892718241     -1258.943617548        12.806038073
       171          171.000000         3.798628938       296.395037167     -1262.862342044     -1258.936057632        12.805644707
       172          172.000000         3.831948355       298.994846241     -1262.923023525     -1258.963188256        12.775478716
       173          173.000000         3.901438861       304.416971276     -1262.960538288     -1258.930979972        12.129259592
       174          174.000000         3.826618430       298.578968933     -1262.836835550     -1258.881857891        12.126459070
       175          175.000000         3.897919362       304.142355821     -1262.942149583     -1258.915631627        12.107490710
       176          176.000000         3.908472453       304.965780256     -1262.953338457     -1258.916016594        12.142502151
       177          177.000000         3.833770501       299.137022477     -1262.839488585     -1258.876609580        12.169085478
       178          178.000000         3.883726293       303.034915426     -1262.942913204     -1258.929819517        12.136498754
       179          179.000000         3.821299595       298.163957067     -1262.852484815     -1258.901554664        12.102556870
       180          180.000000         3.845701707       300.067976850     -1262.881800526     -1258.906209193        12.121583382
       181          181.000000         3.909955414       305.081491037     -1262.966654634     -1258.926546576        12.127771396
       182          182.000000         3.819371743       298.013532852     -1262.843003069     -1258.893207612        12.100067945
       183          183.000000         3.862946608       301.413542128     -1262.907498243     -1258.913860437        12.124557960
       184          184.000000         3.852496493       300.598152613     -1262.886042496     -1258.902584080        12.116305569
       185          185.000000         3.798228365       296.363781720     -1262.812576386     -1258.883117369        12.155411922
       186          186.000000         3.855706637       300.848630020     -1262.905219693     -1258.918020220        12.146871586
       187          187.000000         3.775469206       294.587956290     -1262.810069939     -1258.902847850        12.128992323
       188          188.000000         3.804585359       296.859797934     -1262.855019765     -1258.918434323        12.134586578
       189          189.000000         3.889247167       303.465691831     -1263.002133339     -1258.980641905        12.768608955
       190          190.000000         3.825369364       298.481508244     -1262.888312745     -1258.930449144        12.102825878
       191          191.000000         3.873452953       302.233319099     -1262.963350041     -1258.957154510        12.111177779
       192          192.000000         3.842622237       299.827695527     -1262.960776121     -1258.985158659        12.131795256
       193          193.000000         3.777682191       294.760628559     -1262.880454242     -1258.969528565        12.145968496
       194          194.000000         3.842031466       299.781599549     -1262.922501355     -1258.946988259        12.116444802
       195          195.000000         3.766883634       293.918051198     -1262.810332005     -1258.909732849        12.138344030
       196          196.000000         3.778864840       294.852906960     -1262.834595897     -1258.921796692        12.082545903
       197          197.000000         3.841617862       299.749327335     -1262.924607959     -1258.948846453        12.089045429
       198          198.000000         3.771424958       294.272396426     -1262.851963738     -1258.946189842        12.263976209
       199          199.000000         3.829182964       298.779071442     -1262.938206037     -1258.974480432        12.121612715
       200          200.000000         3.803832467       296.801052151     -1262.889629242     -1258.951064605        12.058227998
       201          201.000000         3.753461282       292.870747438     -1262.830749656     -1258.942377053        12.132185429
       202          202.000000         3.832634669       299.048397092     -1262.963731440     -1258.996020329        12.088075034
       203          203.000000         3.765072527       293.776736216     -1262.875592691     -1258.975284158        12.736799058
       204          204.000000         3.782473745       295.134498408     -1262.909375124     -1258.991520278        12.099858312
       205          205.000000         3.834797630       299.217166141     -1262.964764965     -1258.994451103        12.725346306
       206          206.000000         3.785093225       295.338888152     -1262.802260284     -1258.881519948        12.078685567
       207          207.000000         3.884177993       303.070160115     -1262.966553413     -1258.946604604        12.749155377
       208          208.000000         3.874091634       302.283153402     -1262.944891709     -1258.934898709        12.085313528
       209          209.000000         3.840559638       299.666757423     -1262.949275888     -1258.972679540        12.739024686
       210          210.000000         3.926529712       306.374731247     -1263.050062695     -1258.987357555        12.751512454
       211          211.000000         3.862303875       301.363391690     -1262.952346924     -1258.953715503        12.750947958
       212          212.000000         3.892386002       303.710605189     -1262.969414588     -1258.940543308        12.089525491
       213          213.000000         3.926537607       306.375347227     -1262.971078163     -1258.907886062        12.096300272
       214          214.000000         3.837655162       299.440130381     -1262.844242672     -1258.869751179        12.092568068
       215          215.000000         3.901617253       304.430890633     -1262.941671779     -1258.903034012        12.112390039
       216          216.000000         3.877655453       302.561226918     -1262.949761369     -1258.934890479        12.099509590
       217          217.000000         3.844689995       299.989036219     -1262.873778367     -1258.891672473        12.130476772
       218          218.000000         3.930761078       306.704891347     -1262.978900133     -1258.910517662        12.097800724
       219          219.000000         3.869525455       301.926868802     -1262.888057309     -1258.880689951        12.102795894
       220          220.000000         3.882482276       302.937848696     -1262.920877731     -1258.900326753        12.072817170
       221          221.000000         3.904126379       304.626669792     -1263.022031550     -1258.979599959        12.123720647
       222          222.000000         3.823910484       298.367676471     -1262.895552018     -1258.933091332        12.117329443
       223          223.000000         3.889546339       303.489035280     -1262.981320497     -1258.952978966        12.099216304
       224          224.000000         3.858126112       301.037414066     -1262.939082306     -1258.941907332        12.084381956
       225          225.000000         3.824606877       298.422013845     -1262.909819420     -1258.945908419        12.089349744
       226          226.000000         3.901557640       304.426239185     -1262.940362502     -1258.899244145        12.111171137
       227          227.000000         3.846618788       300.139533847     -1262.846211268     -1258.859765113        12.719860595