#     Step Nr.          Time[fs]        Kin.[a.u.]          Temp[K]            Pot.[a.u.]        Cons Qty[a.u.]        UsedTime[s]
         0            0.000000         3.843405441       300.000000000     -1268.854541213     -1265.010660749         0.000000000
         1            1.000000         3.712854035       289.809708463     -1268.697442604     -1264.983276648        53.770884581
         2            2.000000         3.660577810       285.729247069     -1268.648847448     -1264.986164185        15.201008830
         3            3.000000         3.663385298       285.948387744     -1268.687334350     -1265.021088918        15.223107710
         4            4.000000         3.693055654       288.264330436     -1268.657385042     -1264.960745005        15.199442193
         5            5.000000         3.794727548       296.200409178     -1268.782949796     -1264.983928178        15.254655719
         6            6.000000         3.712078029       289.749136713     -1268.706193495     -1264.989123705        14.599458262
         7            7.000000         3.705313549       289.221129969     -1268.715992621     -1265.005021375        14.627497762
         8            8.000000         3.806984174       297.157109642     -1268.845920628     -1265.032628572        14.615479648
         9            9.000000         3.764332960       293.827935978     -1268.738414140     -1264.967128504        13.988425709
        10           10.000000         3.763686206       293.777453069     -1268.688796092     -1264.917530401        14.653091982
        11           11.000000         3.703045468       289.044093111     -1268.653624534     -1264.942394577        15.259899020
        12           12.000000         3.701164977       288.897309995     -1268.632757616     -1264.922833658        15.268319380
        13           13.000000         3.867778860       301.902486175     -1268.844717083     -1264.967615654        14.595052913
        14           14.000000         3.837600923       299.546923840     -1268.779763920     -1264.932266388        14.599407747
        15           15.000000         3.791295077       295.932485022     -1268.726614860     -1264.924856071        13.999155138
        16           16.000000         3.817318204       297.963740370     -1268.769896311     -1264.941557008        14.019099642
        17           17.000000         3.785632594       295.490495447     -1268.669815242     -1264.872610790        15.239186876
        18           18.000000         3.853148327       300.760488474     -1268.766726578     -1264.901461686        15.249267168
        19           19.000000         3.806730612       297.137317697     -1268.700590029     -1264.881197103        14.673900258
        20           20.000000         3.750490398       292.747444025     -1268.648473067     -1264.884788912        14.599521674
        21           21.000000         3.886523852       303.365641102     -1268.876462279     -1264.976220871        13.998655029
        22           22.000000         3.894854015       304.015858409     -1268.865340300     -1264.956228999        14.623804204
        23           23.000000         3.883638329       303.140409360     -1268.866274880     -1264.967829267        14.597249918
        24           24.000000         3.868849746       301.986075010     -1268.861612480     -1264.977398669        14.642155200
        25           25.000000         3.805443936       297.036885153     -1268.721235807     -1264.899872140        14.573031254
        26           26.000000         3.912566678       305.398434084     -1268.897434872     -1264.968392290        15.299214140
        27           27.000000         3.907170699       304.977246791     -1268.868800751     -1264.944578733        15.266070988
        28           28.000000         3.832942763       299.183327494     -1268.779472737     -1264.928897243        15.253759772
        29           29.000000         3.905656108       304.859024212     -1268.876132128     -1264.952259566        15.247801133
        30           30.000000         3.918404739       305.854128482     -1268.896968465     -1264.959745107        15.305439182
        31           31.000000         3.976075563       310.355669488     -1268.984667869     -1264.989148590        15.211976621
        32           32.000000         3.966068757       309.574580447     -1268.972273888     -1264.986105932        14.652522437
        33           33.000000         3.838879394       299.646715869     -1268.815114429     -1264.955468737        15.264877591
        34           34.000000         3.920160080       305.991142963     -1268.925304914     -1264.983709844        14.609744590
        35           35.000000         3.965477005       309.528390832     -1268.970508905     -1264.982901312        14.650282249
        36           36.000000         3.928380747       306.632813554     -1268.906686542     -1264.955454759        14.600349963
        37           37.000000         3.941501923       307.656997143     -1268.943763172     -1264.978671943        14.625297759
        38           38.000000         3.861737922       301.430956058     -1268.835217708     -1264.949139604        14.650030877
        39           39.000000         3.923077572       306.218870105     -1268.882308908     -1264.934133325        14.645494998
        40           40.000000         3.974750975       310.252277740     -1268.950466368     -1264.949830960        15.213286541
        41           41.000000         3.853447650       300.783852390     -1268.783638129     -1264.903502808        15.293265615
        42           42.000000         3.866350466       301.790991723     -1268.810820878     -1264.916983649        14.633115128
        43           43.000000         3.865458300       301.721353003     -1268.842083907     -1264.948332684        14.671497609
        44           44.000000         3.881052951       302.938605600     -1268.780037377     -1264.869877358        15.251199801
        45           45.000000         3.931000244       306.837280420     -1268.870997784     -1264.910059259        15.330099512
        46           46.000000         3.816041534       297.864088915     -1268.749168993     -1264.902349772        15.307351697
        47           47.000000         3.830236284       298.972071168     -1268.757579459     -1264.895737540        14.646248326
        48           48.000000         3.890875590       303.705319325     -1268.830338974     -1264.907021473        15.263366953
        49           49.000000         3.823558006       298.450792983     -1268.815501092     -1264.958657613        17.162113998
        50           50.000000         3.831350361       299.059031323     -1268.828439332     -1264.962966800        16.552197684
        51           51.000000         3.785623911       295.489817708     -1268.772583667     -1264.952007024        15.915323094
        52           52.000000         3.803931445       296.918826557     -1268.772652516     -1264.932948896        15.852359727
        53           53.000000         3.911697852       305.330617200     -1268.927850449     -1264.979551285        15.266703222
        54           54.000000         3.832995493       299.187443374     -1268.834738123     -1264.964298259        14.646876320
        55           55.000000         3.842967273       299.965798420     -1268.803749577     -1264.922500420        14.616937101
        56           56.000000         3.896116224       304.114381084     -1268.850690469     -1264.915445140        15.243678629
        57           57.000000         3.875509513       302.505908286     -1268.804823689     -1264.889323663        15.267792597
        58           58.000000         3.939571808       307.506340523     -1268.901947186     -1264.921508033        15.267274335
        59           59.000000         3.873908794       302.380962941     -1268.768004447     -1264.852333532        14.645755321
        60           60.000000         3.870331247       302.101714711     -1268.752131086     -1264.839141179        15.332336459
        61           61.000000         4.008027173       312.849677227     -1268.920252296     -1264.868643152        14.639569074
        62           62.000000         3.984688796       311.027982078     -1268.868764681     -1264.839525186        13.993753623
        63           63.000000         3.986270476       311.151441331     -1268.877645118     -1264.845825729        14.713037539
        64           64.000000         3.978272881       310.527182838     -1268.859299445     -1264.834448690        13.967724033
        65           65.000000         3.939223649       307.479164693     -1268.800005415     -1264.813151815        14.013425905
        66           66.000000         4.020447409       313.819148434     -1268.863393283     -1264.794232901        14.728350867
        67           67.000000         3.938577500       307.428729019     -1268.763416776     -1264.775008792        15.283621121
        68           68.000000         3.861214627       301.390109824     -1268.631474942     -1264.719312947        14.677235197
        69           69.000000         3.934087955       307.078294102     -1268.734005233     -1264.747843951        14.652529981
        70           70.000000         3.922057774       306.139268976     -1268.607801463     -1264.632517077        14.005011156
        71           71.000000         3.957483435       308.904446503     -1268.651135278     -1264.639248957        14.015198458
        72           72.000000         3.905875011       304.876110848     -1268.672767195     -1264.711292245        14.072531592
        73           73.000000         3.809823412       297.378728575     -1268.550184636     -1264.683573227        14.069442138
        74           74.000000         3.906575406       304.930780700     -1268.602872735     -1264.638321077        12.756403387
        75           75.000000         3.892719864       303.849275614     -1268.556888566     -1264.604979547        12.689806342
        76           76.000000         3.848498605       300.397550874     -1268.491867499     -1264.582964909        12.760812826
        77           77.000000         3.883396450       303.121529262     -1268.614234328     -1264.669215799        13.375253871
        78           78.000000         3.859415354       301.249666140     -1268.558779961     -1264.636514557        13.341783863
        79           79.000000         3.955393775       308.741336414     -1268.663808099     -1264.644317023        13.369912066
        80           80.000000         3.954863575       308.699951247     -1268.647229891     -1264.626984595        12.717179019
        81           81.000000         3.835611841       299.391664460     -1268.488341037     -1264.586061680        12.725124937
        82           82.000000         3.901092906       304.502839876     -1268.594158048     -1264.625116423        12.742038969
        83           83.000000         3.918858050       305.889512028     -1268.602494691     -1264.614381400        12.726999935
        84           84.000000         3.934136846       307.082110346     -1268.615883273     -1264.611162917        12.717484269
        85           85.000000         3.948350056       308.191533522     -1268.597076518     -1264.576790400        12.791136425
        86           86.000000         3.850302467       300.538352697     -1268.474799138     -1264.551203506        13.372129489
        87           87.000000         3.914554906       305.553626809     -1268.577340203     -1264.588135013        12.773909781
        88           88.000000         3.952416693       308.508958015     -1268.610004575     -1264.581548587        12.739071764
        89           89.000000         3.864022666       301.609293522     -1268.502838781     -1264.561377888        12.788670421
        90           90.000000         3.872476373       302.269154196     -1268.555808583     -1264.604503013        12.723083843
        91           91.000000         3.837022442       299.501770008     -1268.433546322     -1264.516304348        12.763934776
        92           92.000000         3.892889599       303.862524385     -1268.468871741     -1264.494368313        12.769269213
        93           93.000000         3.967717315       309.703259933     -1268.681983802     -1264.631225143        12.727828801
        94           94.000000         3.862781623       301.512422947     -1268.527628856     -1264.580364435        12.769609150
        95           95.000000         3.882632845       303.061925526     -1268.577178553     -1264.608631533        12.722221278
        96           96.000000         3.899548180       304.382265130     -1268.635793452     -1264.648886851        12.817561585
        97           97.000000         3.847878074       300.349114797     -1268.565269475     -1264.628587677        12.708031986
        98           98.000000         3.881880122       303.003171117     -1268.630925376     -1264.658798814        12.108464051
        99           99.000000         3.817014400       297.940026772     -1268.617470666     -1264.708770274        12.813444637
       100          100.000000         3.857937462       301.134308160     -1268.662862409     -1264.711809427        13.420313172
       101          101.000000         3.965933260       309.564004176     -1268.754072674     -1264.693565172        12.756958835
       102          102.000000         3.895406522       304.058984777     -1268.653700567     -1264.662237263        13.384295255
       103          103.000000         3.893940439       303.944548504     -1268.669317244     -1264.677842647        13.443429124
       104          104.000000         3.886219411       303.341877670     -1268.665245245     -1264.680010217        13.401662163
       105          105.000000         3.866448396       301.798635772     -1268.631128860     -1264.664184862        13.444310173
       106          106.000000         3.949871904       308.310322523     -1268.750985259     -1264.699123240        13.765581302
       107          107.000000         3.873256380       302.330038188     -1268.661028724     -1264.684274196        13.446701139
       108          108.000000         3.866893060       301.833344338     -1268.653976352     -1264.682090967        13.415684558
       109          109.000000         3.963177338       309.348888524     -1268.779238534     -1264.709556006        13.442963433
       110          110.000000         3.926431155       306.480636661     -1268.732598685     -1264.698123395        20.520445179
       111          111.000000         3.939725363       307.518326408     -1268.765172310     -1264.715857131        13.395873465
       112          112.000000         3.880044774       302.859911605     -1268.721409550     -1264.730228068        13.441862486
       113          113.000000         3.832461780       299.145784019     -1268.687012115     -1264.741888014        13.419160906
       114          114.000000         3.944243771       307.871014228     -1268.886797602     -1264.828359574        14.712752376
       115          115.000000         3.902042890       304.576991625     -1268.822703819     -1264.804913085        15.331798460
       116          116.000000         3.877414720       302.654620655     -1268.788831471     -1264.794125321        14.686911575
       117          117.000000         3.909994464       305.197657941     -1268.820722726     -1264.791892870        14.723081134
       118          118.000000         3.863095535       301.536925553     -1268.749794807     -1264.766321272        14.666611638
       119          119.000000         3.920732281       306.035806560     -1268.859369254     -1264.816718029        14.731590122
       120          120.000000         3.883926159       303.162876096     -1268.819717209     -1264.812324644        14.664950598
       121          121.000000         3.834406774       299.297602004     -1268.784658374     -1264.825258263        14.656111374
       122          122.000000         3.948335771       308.190418495     -1268.975449632     -1264.900590300        15.302673433
       123          123.000000         3.941837118       307.683161049     -1268.894036052     -1264.824117936        15.301260311
       124          124.000000         3.936647041       307.278045558     -1268.890926674     -1264.824636178        14.689897120
       125          125.000000         3.935955110       307.224036328     -1268.989924216     -1264.922758570        15.327699404
       126          126.000000         3.864464441       301.643776566     -1268.897311266     -1264.900080425        16.001824919
       127          127.000000         3.938276726       307.405251850     -1268.995281392     -1264.922688318        15.964468203
       128          128.000000         3.913818517       305.496147336     -1268.972799309     -1264.923102724        15.970629420
       129          129.000000         3.837869828       299.567913360     -1268.807010909     -1264.831723580        14.657541960
       130          130.000000         3.914161623       305.522928749     -1268.923121300     -1264.870015662        15.376577117
       131          131.000000         3.920052122       305.982716228     -1268.909648927     -1264.849113701        14.697279572
       132          132.000000         3.964779009       309.473908228     -1268.958869923     -1264.852058916        14.726888623
       133          133.000000         3.958628135       308.993796960     -1268.964813480     -1264.862590684        14.698498294
       134          134.000000         3.844463140       300.082559519     -1268.728994272     -1264.739394705        14.010105576
       135          135.000000         3.914165263       305.523212898     -1268.837050146     -1264.776228875        14.683647875
       136          136.000000         3.938753122       307.442437323     -1268.861703799     -1264.774762126        14.054896966
       137          137.000000         3.901116123       304.504652159     -1268.766925937     -1264.716092704        13.418811861
       138          138.000000         3.935012217       307.150438081     -1268.814984965     -1264.728734013        13.405421153
       139          139.000000         3.892035070       303.795823500     -1268.828259647     -1264.783469504        14.081702217
       140          140.000000         3.956524216       308.829573928     -1268.901119686     -1264.790327978        14.048414223
       141          141.000000         3.996640472       311.960879478     -1268.956357281     -1264.803915455        14.704249609
       142          142.000000         3.889667003       303.610982183     -1268.815223224     -1264.768228173        14.077794213
       143          143.000000         3.917435188       305.778449469     -1268.802959305     -1264.726694141        13.457360059
       144          144.000000         3.926233640       306.465219469     -1268.845135380     -1264.758570909        14.085709892
       145          145.000000         3.931027205       306.839384882     -1268.819691372     -1264.726836258        14.031835653
       146          146.000000         3.965727720       309.547960596     -1268.891057733     -1264.762002500        14.075093627
       147          147.000000         3.861926759       301.445695847     -1268.753516138     -1264.726778013        13.418548916
       148          148.000000         3.886960606       303.399732209     -1268.731991718     -1264.678768055        12.784290422
       149          149.000000         3.954303600       308.656242025     -1268.853849398     -1264.731828458        14.030181084
       150          150.000000         3.892150479       303.804831796     -1268.754026914     -1264.692709516        13.401922628
       151          151.000000         3.895698022       304.081738028     -1268.780011467     -1264.713721432        13.382830046
       152          152.000000         3.866034724       301.766346253     -1268.740191064     -1264.702159584        13.381474789
       153          153.000000         3.894781402       304.010190551     -1268.789859608     -1264.721696316        13.462983862
       154          154.000000         3.979376998       310.613365560     -1268.921962717     -1264.767812460        13.354830708
       155          155.000000         3.881665943       302.986453169     -1268.763341665     -1264.705516427        13.415041793
       156          156.000000         3.857926840       301.133479043     -1268.799322241     -1264.763887984        14.056008849
       157          157.000000         3.893507977       303.910792360     -1268.863454261     -1264.791110410        14.040829964
       158          158.000000         3.874374180       302.417288963     -1268.821973314     -1264.767449382        14.648554657
       159          159.000000         3.913016667       305.433558351     -1268.904770971     -1264.810305918        14.645357329
       160          160.000000         3.836080866       299.428274607     -1268.779693433     -1264.760886893        14.086599465
       161          161.000000         3.821624827       298.299897195     -1268.747753372     -1264.742166347        14.062901445
       162          162.000000         3.933775838       307.053931556     -1268.895279946     -1264.776316713        14.014352214
       163          163.000000         3.892923721       303.865187789     -1268.826377209     -1264.747040989        14.003253561
       164          164.000000         3.860584210       301.340902144     -1268.798707031     -1264.750512187        14.688666891
       165          165.000000         3.825719001       298.619471181     -1268.757556435     -1264.743061014        14.620075244
       166          166.000000         3.797079539       296.383995700     -1268.625523669     -1264.638539736        14.012800898
       167          167.000000         3.894562024       303.993066840     -1268.779844554     -1264.694270784        14.749408953
       168          168.000000         3.847054286       300.284813375     -1268.716762735     -1264.677599805        14.661185592
       169          169.000000         3.778469724       294.931392120     -1268.622295564     -1264.650660286        14.673713759
       170          170.000000         3.829476646       298.912777070     -1268.759390034     -1264.735726593        14.670977656
       171          171.000000         3.821692645       298.305190803     -1268.735502033     -1264.718622515        14.648427363
       172          172.000000         3.855657645       300.956355317     -1268.786024661     -1264.734202348        14.065204933
       173          173.000000         3.825524349       298.604277442     -1268.733824441     -1264.711178197        14.636022665
       174          174.000000         3.761234458       293.586080020     -1268.663732419     -1264.704456173        14.685896892
       175          175.000000         3.856979481       301.059532182     -1268.818564438     -1264.762652622        14.723698080
       176          176.000000         3.862853546       301.518036940     -1268.809392778     -1264.746724293        14.669611387
       177          177.000000         3.829391900       298.906162111     -1268.744513856     -1264.714444565        15.320507608
       178          178.000000         3.848308949       300.382747125     -1268.738471547     -1264.688645372        14.085257884
       179          179.000000         3.819270495       298.116127957     -1268.704747272     -1264.683139984        14.683468182
       180          180.000000         3.888826910       303.545408023     -1268.793168526     -1264.701201939        14.026908427
       181          181.000000         3.886204373       303.340703881     -1268.731874898     -1264.641731944        13.418825418
       182          182.000000         3.800410568       296.644001739     -1268.635390952     -1264.630263342        13.434512891
       183          183.000000         3.864391706       301.638099174     -1268.723855006     -1264.653992331        13.397065859
       184          184.000000         3.890394428       303.667761858     -1268.744828251     -1264.648213880        12.767245494
       185          185.000000         3.901016065       304.496841991     -1268.779536565     -1264.671555800        13.427467912
       186          186.000000         3.893339339       303.897629215     -1268.782401572     -1264.681357963        13.395279549
       187          187.000000         3.790206403       295.847507724     -1268.634324292     -1264.635693158        13.396787774
       188          188.000000         3.836735083       299.479339994     -1268.695615555     -1264.649763205        13.393175822
       189          189.000000         3.867775261       301.902205206     -1268.717434877     -1264.639859764        12.766595349
       190          190.000000         3.801950646       296.764213717     -1268.681509464     -1264.669091795        13.432414506
       191          191.000000         3.813686571       297.680270492     -1268.691077521     -1264.666282063        13.399799362
       192          192.000000         3.789321483       295.778434586     -1268.691541010     -1264.690490276        13.379657909
       193          193.000000         3.821474932       298.288197002     -1268.717677318     -1264.683874615        13.342656314
       194          194.000000         3.861863183       301.440733355     -1268.768928790     -1264.694150493        12.713954609
       195          195.000000         3.773076834       294.510445888     -1268.657557153     -1264.670993276        12.711334560
       196          196.000000         3.790152499       295.843300166     -1268.688630230     -1264.684447080        12.717717919
       197          197.000000         3.828849530       298.863826991     -1268.697456923     -1264.654050298        12.758911245
       198          198.000000         3.820305949       298.196951129     -1268.657891812     -1264.622514989        12.746076774
       199          199.000000         3.849168394       300.449831786     -1268.644563783     -1264.579823387        12.746429008
       200          200.000000         3.802402120       296.799453867     -1268.618874577     -1264.600411148        12.721401569
       201          201.000000         3.834017266       299.267198664     -1268.718068540     -1264.667517406        12.861485209
       202          202.000000         3.910173948       305.211667712     -1268.818523171     -1264.691346179        12.763573922
       203          203.000000         3.859619778       301.265622684     -1268.744485787     -1264.667391063        13.371518776
       204          204.000000         3.850207745       300.530959132     -1268.820898893     -1264.752752582        13.980135188
       205          205.000000         3.839489725       299.694355694     -1268.857097400     -1264.799214035        13.363038495
       206          206.000000         3.837450092       299.535150536     -1268.789926471     -1264.733637370        14.015741862
       207          207.000000         3.891336490       303.741295235     -1268.868015485     -1264.757399562        14.041977566
       208          208.000000         3.817829270       298.003632052     -1268.794239046     -1264.756692543        13.974716600
       209          209.000000         3.795628987       296.270771670     -1268.734422506     -1264.718655350        14.106084432
       210          210.000000         3.857944161       301.134831054     -1268.801798815     -1264.723308077        14.010950297
       211          211.000000         3.845159432       300.136909092     -1268.709948302     -1264.643837245        13.544064630
       212          212.000000         3.868549536       301.962641874     -1268.734815764     -1264.644914609        13.359493028
       213          213.000000         3.841759622       299.871534260     -1268.700883383     -1264.637375217        13.391990718
       214          214.000000         3.838634456       299.627596997     -1268.685982258     -1264.625210096        13.369781632
       215          215.000000         3.936147975       307.239090568     -1268.831442297     -1264.672767429        14.000659514
       216          216.000000         3.898882942       304.330339435     -1268.818011726     -1264.696200564        14.037558310
       217          217.000000         3.858504904       301.178600319     -1268.764451337     -1264.682616023        14.018372122
       218          218.000000         3.876337211       302.570514854     -1268.735535839     -1264.635468875        14.038796518
       219          219.000000         3.871345068       302.180849311     -1268.740607522     -1264.645132696        14.657941237
       220          220.000000         3.931707147       306.892458270     -1268.717429039     -1264.561187939        15.276732448
       221          221.000000         3.909625888       305.168888437     -1268.690207380     -1264.555631481        15.271843560
       222          222.000000         3.874596444       302.434637977     -1268.641059268     -1264.541092696        14.642156079
       223          223.000000         3.956795873       308.850778315     -1268.752660238     -1264.570068196        13.970774449
       224          224.000000         3.962604295       309.304159178     -1268.808462529     -1264.619615931        14.596543413
       225          225.000000         3.940142248       307.550866631     -1268.733927124     -1264.567079793        15.236707043
       226          226.000000         3.901456384       304.531211466     -1268.649959407     -1264.521325653        14.609735206
       227          227.000000         3.845378015       300.153970745     -1268.576224057     -1264.503196988        14.637943000