    2699
 i =        0, time =        0.000, E =     -1262.5088475596
  C        11.6032010000       11.0766240000       14.1327420000
  O        12.5468270000       10.3842020000       13.9272990000
  O        10.5404760000       11.0630380000       12.3044040000
  N        11.0351610000       11.8467750000       15.0136520000
  H        11.3717640000       11.0335940000       11.8302350000
  H        11.6713930000       11.8190360000       15.8038980000
  H        10.3044690000       12.9971160000       14.5099880000
  N         9.9419090000       13.8008530000       13.7927060000
  H         8.9723200000       13.9215510000       14.1202120000
  H         9.9673320000       13.5567290000       12.7846770000
  H        10.6521700000       14.6073230000       13.7597560000
  O        27.2248400000       14.4047180000        0.8293220000
  H        27.1191750000       13.9270900000       -0.0308170000
  H        26.5373400000       15.0612240000        0.7880860000
  O        -2.6159200000       19.4853760000        1.0106080000
  H        -2.8550460000       18.5740010000        0.6921280000
  H        -2.7256110000       19.2556230000        1.9523350000
  O         1.6104150000        5.8276290000      -12.8286620000
  H         0.6900150000        5.4287250000      -12.8720270000
  H         1.3647780000        6.7681210000      -12.6660050000
  O        27.6636200000       23.8928740000       -9.4149100000
  H        27.8291550000       24.8718090000       -9.3083350000
  H        26.6213380000       23.9143120000       -9.5216140000
  O        23.1221500000        7.9094090000        9.6269750000
  H        22.5747320000        7.2307600000        9.1426730000
  H        22.7029090000        7.8379560000       10.4895210000
  O        18.4650480000       -3.3723700000        9.1058170000
  H        19.2210010000       -2.7302790000        9.1199030000
  H        17.7311900000       -2.8447070000        9.3993480000
  O        -3.2568760000       21.8355830000       -5.3382390000
  H        -3.6401450000       22.6078000000       -4.8935510000
  H        -2.6955600000       22.3358840000       -6.0208500000
  O        -2.3260330000        7.7744240000        2.0658950000
  H        -2.1965420000        7.8096650000        1.0854720000
  H        -2.5481360000        8.7154040000        2.2280020000
  O        26.7856040000        3.8485770000       -5.2627530000
  H        26.0797140000        4.4832430000       -5.1560240000
  H        26.4828620000        3.3636500000       -6.0204540000
  O        19.3843170000       23.3775020000       -3.9343930000
  H        19.3528980000       23.6607800000       -3.0079070000
  H        19.0009440000       24.1330870000       -4.3502000000
  O         0.2395160000       10.1712770000        3.1966980000
  H        -0.6601310000       10.4341970000        3.1858130000
  H         0.5114840000       10.1001690000        2.2720480000
  O         7.8545310000       14.7714190000      -14.0889540000
  H         7.5184140000       15.1460040000      -13.1930930000
  H         8.1880120000       15.6582190000      -14.4111920000
  O        24.3129670000        5.0389410000       -5.4559280000
  H        23.9255330000        5.6082550000       -4.7668500000
  H        23.5679700000        4.3639880000       -5.5807190000
  O         2.5457040000       -0.3021880000      -10.6129150000
  H         2.3110490000        0.5401050000      -10.1830620000
  H         1.9882710000       -0.9317030000      -10.1407140000
  O        22.1678790000        3.2976600000       -5.6647630000
  H        21.8468150000        3.5882670000       -4.7835980000
  H        22.2211400000        2.3156380000       -5.4714920000
  O        12.1647400000       -0.4651010000      -10.7850910000
  H        12.5669230000        0.2774430000      -10.4870270000
  H        11.2709580000       -0.2189130000      -10.8203720000
  O        -2.9819480000       21.1832330000       -1.1354200000
  H        -2.4057220000       20.8610060000       -1.8508300000
  H        -2.6891040000       20.7260910000       -0.3537370000
  O        25.3586850000       -3.3370420000       -4.4526570000
  H        24.6217990000       -3.9165140000       -4.2841200000
  H        25.2008090000       -3.0079710000       -5.3977680000
  O        19.4715100000       30.0938300000       -6.2706370000
  H        19.6794320000       31.0936890000       -6.2894540000
  H        18.7394470000       30.0749070000       -6.9034130000
  O        19.4605940000       13.6994920000      -10.6830590000
  H        19.1281830000       14.3109490000      -11.3653480000
  H        19.2026390000       14.1982360000       -9.9309140000
  O        10.7665470000       13.6987510000      -14.9422770000
  H         9.8006540000       13.8794610000      -15.1143980000
  H        11.1021830000       14.6104300000      -15.0088100000
  O        16.9585780000       27.3898220000      -11.4335740000
  H        17.4517920000       27.8906400000      -10.7731810000
  H        16.6397060000       26.6650470000      -10.9673410000
  O        22.0024390000        5.6961740000       -7.8223150000
  H        22.9024160000        5.4475160000       -7.9680680000
  H        21.4876940000        4.9729060000       -8.2279460000
  O        22.5588280000       -0.1895210000       -7.5354400000
  H        22.7393820000        0.7104600000       -7.9463400000
  H        21.8350930000        0.0773740000       -6.9262800000
  O        -1.3985570000        5.8908610000      -10.8640840000
  H        -1.1973200000        6.3774840000      -11.6673940000
  H        -1.5100160000        4.9921080000      -11.2721790000
  O        20.4507140000       11.6657190000       -0.6106350000
  H        20.3840900000       12.5100130000       -1.0645990000
  H        20.4312250000       11.9336550000        0.3338440000
  O        15.4182730000        7.2721140000        1.9050790000
  H        15.8414090000        8.2051390000        1.8058720000
  H        14.5409390000        7.5372610000        1.5837890000
  O         0.7660510000       25.4852290000        0.0011570000
  H         0.4495880000       25.4883160000       -0.8946580000
  H         1.5795630000       26.0261960000       -0.0387610000
  O        25.5797880000        2.1315340000      -12.1719770000
  H        25.2625080000        1.2598410000      -11.8935480000
  H        24.9832130000        2.3793590000      -12.8840760000
  O        15.9385460000        0.7441140000       -0.7300040000
  H        15.3261850000        1.4960360000       -0.9772380000
  H        16.4365460000        0.7322920000       -1.6436210000
  O        25.2276650000       -1.2003990000        0.3245800000
  H        26.1169300000       -1.5398200000        0.4050520000
  H        25.4546680000       -0.4362560000       -0.3453240000
  O        -2.1915270000        5.5609290000      -16.9883750000
  H        -2.3935020000        4.8434570000      -17.5472680000
  H        -2.7927780000        5.4642980000      -16.2096000000
  O        20.6234490000       -5.0337200000        6.7414960000
  H        20.8288650000       -4.1367020000        6.3583990000
  H        19.6400680000       27.0191500000        6.7958680000
  O         6.4124960000       -4.0452460000        8.6032080000
  H         5.7762480000       -3.3674730000        8.9296640000
  H         7.1030600000       -3.4044500000        8.3117260000
  O         6.3948060000        5.4041430000       -2.5669960000
  H         6.4039570000        6.4058420000       -2.8503270000
  H         7.3119690000        5.2033270000       -2.6760390000
  O        12.2211070000       -4.7072080000       -9.6023280000
  H        12.6642700000       -5.0388340000      -10.4257270000
  H        12.5320360000       -3.7343690000       -9.7215210000
  O        24.9441640000       16.4896890000        6.3765160000
  H        25.6433980000       16.0931170000        5.8681020000
  H        25.4018420000       17.1671560000        6.8984560000
  O        24.4321730000        6.5861130000       -0.9501350000
  H        23.8225230000        7.3631270000       -0.9979050000
  H        25.0950390000        6.9406680000       -0.3011510000
  O        24.4652600000        4.8208310000       -8.4320760000
  H        24.9049340000        5.2112090000       -9.2091110000
  H        25.0659220000        5.1188290000       -7.6936650000
  O         5.3913470000        2.8876650000      -15.1413080000
  H         5.8875530000        3.0681570000      -14.3374610000
  H         4.9254580000        2.0735050000      -14.7903510000
  O         9.7184680000        3.1313200000        2.8595060000
  H        10.4504470000        3.7352910000        3.0118580000
  H         8.9584720000        3.6287310000        3.2869470000
  O         7.8502630000        1.6842200000       -3.7386720000
  H         8.5038870000        1.5272610000       -3.0489640000
  H         8.3794670000        2.1157970000       -4.4663550000
  O         6.0330360000        0.2636270000      -12.8429830000
  H         5.1981690000        0.2461140000      -13.3737150000
  H         5.7113520000       -0.2227720000      -12.0044750000
  O        27.6877540000        2.4980050000       -2.3913230000
  H        28.6615280000        2.3507280000       -2.4021520000
  H        27.5812050000        3.2067270000       -3.0392910000
  O        13.3672770000       11.9143040000        0.8003290000
  H        12.6139840000       11.3619710000        0.4692740000
  H        13.0129390000       12.7738290000        0.4472480000
  O         5.4492080000        8.9901420000      -10.9822250000
  H         6.4216430000        8.8781340000      -11.0128890000
  H         5.1394080000        8.5147760000      -11.7489890000
  O         8.3292620000       13.8189640000       -8.4134380000
  H         7.7611060000       13.8005020000       -7.6106300000
  H         8.2293980000       14.7332750000       -8.6996930000
  O        25.8831100000        5.8534150000        8.5520090000
  H        25.5471800000        6.1173190000        7.6643130000
  H        25.1401060000        6.0017140000        9.1178250000
  O        20.0108300000       10.7855490000        6.2625180000
  H        20.6265200000       10.3747220000        6.8580560000
  H        20.5743450000       11.4093500000        5.6820620000
  O        12.1295850000       -1.5749570000       -5.4811940000
  H        11.4388230000       -1.3409320000       -6.1401840000
  H        12.2074550000       -0.7369670000       -5.0268450000
  O        16.9292110000       14.6945410000       -1.7119060000
  H        16.7135180000       14.3616840000       -0.8622240000
  H        16.0761030000       14.8558600000       -2.0937910000
  O         3.3966450000        7.0293800000        9.8471260000
  H         2.9347830000        6.8389730000        8.9244590000
  H         4.3681290000        7.1497950000        9.5263750000
  O         7.4524680000       18.3330060000        3.4865560000
  H         6.9361970000       18.4417380000        2.6012790000
  H         6.6897340000       18.5115640000        4.1176700000
  O         8.7217270000       22.9767970000       -0.5233360000
  H         8.9580870000       23.9057140000       -0.5081670000
  H         7.9818330000       22.8917450000        0.1191110000
  O         9.6311030000       -3.7962320000      -11.3078580000
  H        10.2537360000       -4.4234320000      -10.8830210000
  H        10.3330890000       -3.3035340000      -11.8663710000
  O        14.9477020000       20.3364300000        9.5294230000
  H        14.2954280000       19.9882200000       10.2341860000
  H        15.3852710000       19.6064320000        9.1419590000
  O         4.8892160000       -6.5704780000        4.6730070000
  H         5.1622430000       -6.6983150000        5.5809140000
  H         5.0971570000       -5.6360130000        4.5138300000
  O        13.6760760000       -1.4709360000      -14.1838710000
  H        14.1006670000       -0.6603730000      -14.4149620000
  H        14.3552990000       -1.8509270000      -13.5933600000
  O        22.1129510000       21.7316760000      -11.8656410000
  H        22.6136990000       21.0746080000      -11.3835500000
  H        21.9429490000       22.3776450000      -11.1607030000
  O         3.5541870000       -8.5031650000        0.7247040000
  H         3.3366420000       24.4726960000        0.8278910000
  H         4.5172200000       -8.4309950000        0.8008370000
  O         3.6244370000       15.1563570000       -0.0159140000
  H         3.8614650000       14.4650280000        0.6136510000
  H         2.6780640000       15.2140830000        0.0941260000
  O        23.1085890000       18.2071130000        5.1385340000
  H        23.1994670000       18.9895780000        5.7865720000
  H        23.7270200000       17.5816000000        5.5542610000
  O         6.7627870000        5.7505490000        0.4939740000
  H         5.7690390000        5.8651630000        0.6507500000
  H         6.7346630000        5.5711150000       -0.4882580000
  O        29.1565700000        4.1516900000       11.3610850000
  H        29.6774540000        4.9668530000       11.4002640000
  H        28.9760090000        3.9628810000       12.3406560000
  O         4.7273340000       -3.3240140000       -0.9295980000
  H         5.5983990000       -2.9610400000       -1.0753070000
  H         4.4350990000       -2.7139380000       -0.1680080000
  O        17.4430750000       20.1463380000        2.4786170000
  H        17.7977870000       20.9694810000        2.9970870000
  H        16.4791280000       20.3791500000        2.4868040000
  O        24.4905930000       26.1305520000        1.8746670000
  H        24.4626560000       27.1059090000        2.0024620000
  H        25.0623020000       26.0542280000        1.0756710000
  O        20.3236980000        7.5630320000       -3.5709090000
  H        20.3552880000        8.5395120000       -3.6098190000
  H        20.1238100000        7.4813670000       -2.6104180000
  O        11.0342640000       -1.2760490000       10.2109130000
  H        11.2754420000       -0.4548920000       10.6833390000
  H        11.8059050000       -1.8504740000       10.5828410000
  O         2.1488300000       28.3433530000        8.9282570000
  H         1.5039680000       28.8808560000        9.4055430000
  H         2.0353240000       28.6107850000        7.9925840000
  O         0.4371820000       -4.0582430000       -2.9944400000
  H         0.1368140000       -4.0887530000       -3.9164860000
  H        -0.3250980000       -3.5698650000       -2.6243060000
  O         8.9223120000        8.3641800000      -14.8569340000
  H         9.7357230000        7.8339740000      -14.6423020000
  H         9.3626030000        9.2036540000      -15.0285210000
  O         5.2069760000       -6.7982080000       -5.6646180000
  H         4.9726020000       -6.3397450000       -4.7535770000
  H         5.6295740000       -6.0335690000       -6.0809180000
  O        28.5278220000       11.7640190000      -14.9562070000
  H        27.7070640000       11.3660350000      -14.6585610000
  H        28.7797390000       12.2780540000      -14.1582480000
  O        14.3265680000       11.8739210000        3.2563050000
  H        15.1980330000       11.4090920000        3.1415840000
  H        13.9561410000       11.8230300000        2.3419270000
  O        12.0768610000        8.2822090000       -1.8817950000
  H        11.8719580000        9.2276000000       -2.2095550000
  H        12.2388260000        7.8726290000       -2.7704240000
  O         7.7139640000       12.0128360000      -13.6203200000
  H         7.7982580000       12.9317950000      -13.9803910000
  H         7.6671180000       12.2244810000      -12.6597440000
  O        20.5800990000       -2.3799000000       -1.6277020000
  H        19.6185950000       -2.6341560000       -1.6834910000
  H        20.7160930000       -2.2248090000       -2.5901090000
  O        23.4556390000        2.5908070000      -14.0734210000
  H        22.6488900000        3.1290310000      -14.4404340000
  H        23.0768340000        1.7341050000      -14.0421180000
  O         9.3710260000       18.8829230000       -0.8278420000
  H         9.1209420000       19.4681930000       -1.5591760000
  H         8.7502500000       19.0968610000       -0.1198460000
  O        24.1366100000       -2.3818720000      -10.0896650000
  H        24.2894000000       -3.3398590000      -10.3252010000
  H        23.2754520000       -2.5425640000       -9.5764140000
  O        12.0737310000       16.5513250000       -8.1574980000
  H        12.4862030000       17.4089830000       -7.8481380000
  H        11.1708720000       16.7272240000       -7.9249570000
  O        17.7686140000       12.2709850000        6.5918420000
  H        17.2956240000       11.5993050000        6.0230430000
  H        18.6746030000       11.8958020000        6.7428330000
  O         5.5105460000       16.0902920000        8.0545700000
  H         5.2773080000       15.5057820000        8.7878280000
  H         5.8277600000       15.5905680000        7.3004620000
  O         9.7740380000        1.2636480000        4.7943910000
  H         9.8080860000        1.7476380000        3.9419580000
  H         8.7890170000        1.4308540000        5.0057830000
  O        17.6130280000       15.7880050000       10.5990240000
  H        17.0855100000       15.1221420000       10.1765880000
  H        16.9446140000       16.5034200000       10.7339400000
  O        24.0798630000       24.0540180000        9.1078620000
  H        23.6475560000       23.1779400000        9.0500000000
  H        23.3583620000       24.6435180000        8.7774740000
  O         7.0983760000        7.8836530000       -3.4447390000
  H         6.5788340000        8.1068660000       -2.5916160000
  H         7.8071140000        8.5837460000       -3.2833120000
  O         2.4777960000       -3.3299360000        6.0747160000
  H         2.5689700000       -3.4005140000        5.1163680000
  H         1.5855380000       -3.7868240000        6.1507050000
  O         2.0700730000        0.9223460000        4.5269630000
  H         1.4461000000        0.5417890000        5.2224760000
  H         1.5070040000        1.6655020000        4.2466090000
  O         6.5537110000       -1.2532630000        1.9278320000
  H         6.0165470000       -0.7469830000        1.2350610000
  H         7.5066390000       -0.9951670000        1.6455530000
  O        13.8743370000       15.9241200000       12.5218680000
  H        13.5843110000       15.3846240000       11.7414380000
  H        14.7071800000       15.5500650000       12.7759130000
  O        19.7758830000       24.8651180000      -13.5131170000
  H        19.0790420000       24.4225460000      -14.0251530000
  H        19.7005920000       24.3226430000      -12.6818810000
  O         9.7362940000        0.3165710000      -11.0552960000
  H         9.4622210000        0.1701570000      -11.9990740000
  H         9.1537630000        1.0326660000      -10.7816150000
  O        16.8735030000       28.3857710000       -1.4955610000
  H        16.9006250000       -3.0512110000       -0.6937620000
  H        17.1631740000       28.9913940000       -2.2267790000
  O        14.1306300000       20.2369500000       -2.0849520000
  H        13.3498940000       19.6833780000       -1.7925710000
  H        14.8463540000       19.6670150000       -1.7154490000
  O         7.1685990000        1.4082240000        8.5089520000
  H         6.2720790000        1.7957940000        8.3276180000
  H         7.5405410000        1.5516780000        7.6291800000
  O        22.2292350000       -5.5620300000        4.1660670000
  H        22.2316420000       -4.5933290000        4.2688490000
  H        21.9581530000       26.1272600000        5.0388570000
  O         1.4052660000       12.7043020000        3.1750890000
  H         1.0338910000       11.8659880000        3.5061280000
  H         1.7038800000       13.1167930000        4.0319950000
  O         5.9390440000        6.4808990000       -5.4872260000
  H         5.3810410000        5.9836490000       -4.8165800000
  H         6.4201970000        7.0394800000       -4.8633380000
  O        13.0382930000        9.0867470000        8.9051200000
  H        13.4809200000        8.6916800000        9.7141310000
  H        13.7277880000        9.0668310000        8.2483060000
  O        14.0494440000        6.9237880000      -10.2539230000
  H        14.8001120000        7.6139710000      -10.1862380000
  H        13.3658370000        7.3261450000       -9.7818450000
  O         1.9348860000       12.4487190000      -14.7074950000
  H         2.7491170000       12.8034040000      -14.3533520000
  H         2.1282830000       11.4504570000      -14.6853150000
  O        22.9591900000        4.4225660000       -0.3514150000
  H        23.7928450000        3.9570130000       -0.0957010000
  H        23.2970830000        5.3321780000       -0.5244550000
  O         6.0077970000       -2.5409490000       -3.8616820000
  H         6.0815490000       -1.8058130000       -4.5081330000
  H         6.3151940000       -2.0494650000       -3.0517470000
  O        15.8252160000        1.5029090000        9.1046410000
  H        15.5484490000        0.6379550000        9.4338310000
  H        16.7249720000        1.3375310000        8.7601520000
  O         5.8500970000       19.4530430000        1.4659880000
  H         5.5943980000       19.7733290000        0.5709400000
  H         5.9189160000       20.2980650000        1.9651110000
  O         5.2081350000       20.5739170000        9.3217540000
  H         5.9070420000       21.1995580000        9.2677160000
  H         5.5594910000       19.8983960000        9.9052520000
  O        14.3525510000       -2.7038170000       -4.3538250000
  H        13.7531400000       -2.2004630000       -4.9959490000
  H        15.1990500000       -2.4842240000       -4.8936680000
  O         9.2604440000       25.1925540000       -4.4986570000
  H        10.0171940000       -6.6318640000       -3.9053360000
  H         8.7062420000       -6.0037250000       -4.2831960000
  O        -1.9723830000       17.2117080000      -12.9953890000
  H        -1.3464830000       17.6586990000      -12.4317720000
  H        -2.7098630000       17.8611790000      -13.0008870000
  O        -6.7306360000       -2.0553640000        6.0785560000
  H        -6.9137510000       -2.9561680000        5.7874960000
  H        -6.2033070000       -2.2659670000        6.8777540000
  O         9.7700080000        4.5609000000      -12.7270320000
  H         8.8163820000        4.3854530000      -12.8347620000
  H        10.1913320000        3.9296110000      -13.2595960000
  O        22.2605150000        0.8270220000       -4.5490120000
  H        21.6072480000        0.1646500000       -4.2015030000
  H        22.7232090000        1.1532800000       -3.7202280000
  O        14.6430740000        5.2192650000       -4.2862910000
  H        15.5472250000        5.5231770000       -3.9561610000
  H        14.3973880000        6.0666420000       -4.7125460000
  O         6.4581260000        6.0788810000        9.1748480000
  H         6.8163680000        6.2471550000        8.2376270000
  H         7.0550760000        5.3064660000        9.4983100000
  O        22.3643230000       -4.2995080000       -0.9235310000
  H        22.1258790000       27.3531760000       -0.0179420000
  H        21.8216670000       -3.4980850000       -0.9636130000
  O         1.6485800000        3.8631930000       -0.7052470000
  H         1.2459220000        3.5023750000       -1.4846890000
  H         1.0352090000        3.4879670000       -0.0215160000
  O        24.5162910000       24.7571110000       -6.8218920000
  H        25.1242920000       25.4110030000       -6.4755160000
  H        23.6382540000       25.1332860000       -6.6076580000
  O        -2.7804070000       -5.6048890000       -0.3600690000
  H        -2.8208380000       -5.4673320000        0.5862390000
  H        -2.7144020000       -6.5808660000       -0.4162900000
  O         7.4109080000        4.5113300000        2.7775200000
  H         7.2237060000        4.8691400000        1.9087330000
  H         6.9959400000        5.1247080000        3.3786700000
  O        28.5578370000        1.5489020000        2.9007350000
  H        29.5583040000        1.5094420000        2.7548790000
  H        28.3915180000        0.8110270000        3.4421630000
  O        19.2768060000        9.3391660000        3.8089560000
  H        19.7664950000        8.4582530000        3.7239550000
  H        19.6421780000        9.8094040000        4.5768890000
  O         0.1054960000       10.5329280000        0.3975840000
  H        -0.7609880000       10.8322770000        0.6438800000
  H         0.1207330000       10.8331260000       -0.5229200000
  O        10.5720700000       12.1712920000        3.5037540000
  H        11.0734800000       11.3567440000        3.3930150000
  H         9.9721620000       12.0029030000        4.2522490000
  O         8.7237680000       25.5229530000       -7.4571750000
  H         8.6749150000       26.4399260000       -7.7671490000
  H         8.6745410000       25.5946600000       -6.4989630000
  O        27.7325690000       23.0247590000      -11.8992490000
  H        27.8370820000       23.4062580000      -11.0036330000
  H        -3.6255560000       23.5036160000      -12.4153470000
  O        -0.6170570000       25.5249810000       -8.2946230000
  H        -0.2951230000       26.0634400000       -7.5659860000
  H        -0.9994140000       24.7536430000       -7.8594710000
  O        -1.4060530000       -1.4253130000        3.3662400000
  H        -1.6032840000       -1.2483170000        4.3209950000
  H        -1.2757980000       -2.4425840000        3.4770980000
  O         9.7813010000       -3.0741100000       -0.4193290000
  H        10.1522010000       -2.3612120000        0.1620450000
  H        10.5434890000       -3.1590370000       -1.0157000000
  O        14.3914060000       21.7695710000      -10.2532450000
  H        15.3336220000       21.7991100000      -10.4126580000
  H        14.3041620000       22.0865860000       -9.3498750000
  O        10.8357960000       10.3161240000        0.2161720000
  H        10.1115110000       10.9290080000       -0.0916150000
  H        10.3588040000        9.6282780000        0.6874530000
  O        -3.6742960000       23.5730440000       10.4938550000
  H        -2.7422750000       23.8454990000       10.4427860000
  H        -3.7232060000       22.8564530000        9.8561230000
  O         3.7161400000       23.1515350000        4.4791520000
  H         4.2329120000       24.0005050000        4.3348990000
  H         4.3482370000       22.5240540000        4.0783010000
  O        20.5208130000       -1.8949400000      -14.0966410000
  H        20.3372840000       -2.7009230000      -13.6472390000
  H        19.7015380000       -1.5536900000      -14.4275900000
  O        -0.8318090000       12.5208570000       -7.8472590000
  H        -0.8492020000       13.5056830000       -7.6820800000
  H        -1.2499760000       12.5334650000       -8.7355090000
  O        20.3378940000        7.8522130000       -8.4374320000
  H        20.9941270000        8.5512130000       -8.1170750000
  H        20.8231720000        7.0635190000       -8.0413810000
  O        13.6641170000        2.2740400000      -13.1059310000
  H        12.7185850000        2.3600000000      -13.2451500000
  H        13.9374720000        3.1690710000      -12.9619920000
  O        24.7307550000       -0.3299990000      -11.3197120000
  H        24.7772660000       -0.8042780000      -12.2142560000
  H        24.4766650000       -1.1362380000      -10.7643420000
  O        14.3352640000        2.9887670000       11.1590500000
  H        13.9773060000        2.1782760000       10.7707220000
  H        15.1884010000        3.1612200000       10.7060390000
  O        19.6319940000       20.6249830000      -10.1697330000
  H        19.8490310000       19.7947650000      -10.6254780000
  H        20.3441260000       20.7432690000       -9.5490330000
  O        16.3699950000       16.1759010000      -13.1097820000
  H        15.8250800000       15.9094190000      -12.3003220000
  H        15.9599810000       17.0608750000      -13.2577220000
  O         9.1492250000        7.5197320000       15.3706430000
  H         8.9612210000        6.6682730000       14.9988520000
  H         9.2089080000        8.0783010000       14.5399680000
  O        27.0462110000       13.1252280000       -1.5930990000
  H        26.7078360000       12.2441890000       -1.5601670000
  H        26.2280730000       13.5745140000       -2.0077840000
  O         9.0272200000       -1.7682040000       -9.4286790000
  H         9.2143480000       -2.4136660000      -10.1673860000
  H         9.0126250000       -0.9339440000       -9.9302890000
  O        -3.3266110000       16.8859690000        0.3422360000
  H        -3.6289690000       17.0899370000       -0.6004970000
  H        -3.7024630000       15.9581010000        0.3782970000
  O        10.1342970000        2.0152480000        0.4030960000
  H         9.9598140000        2.4386830000        1.2989710000
  H        10.4391560000        2.8435910000       -0.0096170000
  O         6.8402290000       11.1026330000       -5.0354270000
  H         7.6909870000       10.8102100000       -4.6026880000
  H         6.1751480000       10.6606830000       -4.4453500000
  O        15.4145860000       17.0349480000        4.3224420000
  H        15.1855870000       17.1747860000        5.3320440000
  H        15.2266790000       16.0402200000        4.3471240000
  O         7.6707970000       12.2630940000      -10.8605070000
  H         7.9747810000       12.7413260000      -10.0917050000