#     Step Nr.          Time[fs]        Kin.[a.u.]          Temp[K]            Pot.[a.u.]        Cons Qty[a.u.]        UsedTime[s]
         0            0.000000         3.844830508       300.000000000     -1262.748289772     -1258.902984241         0.000000000
         1            1.000000         3.601178012       280.988564101     -1262.427083860     -1258.824608891        40.888342559
         2            2.000000         3.549769288       276.977303444     -1262.360031172     -1258.808216455        11.382835396
         3            3.000000         3.715357879       289.897659043     -1262.491688697     -1258.773575855        10.780225255
         4            4.000000         3.759154599       293.314978981     -1262.342959415     -1258.580347724        10.800306611
         5            5.000000         4.058047160       316.636622945     -1262.596418709     -1258.534190819        10.826776788
         6            6.000000         4.070706251       317.624371939     -1262.472931516     -1258.397254533        10.829457290
         7            7.000000         4.151884226       323.958433328     -1262.381634716     -1258.223930223        10.839584403
         8            8.000000         4.566566888       356.314813742     -1262.749017984     -1258.175649556        10.820229881
         9            9.000000         4.559662196       355.776062365     -1262.520215810     -1257.952567374        10.794583589
        10           10.000000         4.611295339       359.804833719     -1262.455902839     -1257.835258018        10.811929129
        11           11.000000         4.720878873       368.355291281     -1262.474304006     -1257.742500208        10.857909754
        12           12.000000         4.772728865       372.400982641     -1262.353677032     -1257.568206405        10.799600929
        13           13.000000         5.171142349       403.487930407     -1262.728368533     -1257.542328143        10.804422565
        14           14.000000         5.176634019       403.916428135     -1262.656982123     -1257.462866761        10.802984729
        15           15.000000         5.074214963       395.924992209     -1262.462592687     -1257.367989306        10.854209989
        16           16.000000         5.255446596       410.065924982     -1262.738520924     -1257.459418952        11.372835457
        17           17.000000         5.140104272       401.066127141     -1262.589563343     -1257.422154798        11.897139192
        18           18.000000         5.124975634       399.885687291     -1262.628496520     -1257.472275321        11.899551012
        19           19.000000         4.989692613       389.329979757     -1262.558509715     -1257.533373200        12.411386654
        20           20.000000         4.735543878       369.499555367     -1262.303863769     -1257.528577155        11.328838080
        21           21.000000         4.960814033       387.076675212     -1262.718629888     -1257.713575366        11.910944223
        22           22.000000         4.891931825       381.702013764     -1262.729899682     -1257.788922957        11.892045729
        23           23.000000         4.648208880       362.685080928     -1262.605892339     -1257.903783061        11.920876972
        24           24.000000         4.576036852       357.053725189     -1262.698245634     -1258.063474747        11.896853432
        25           25.000000         4.329305171       337.802030170     -1262.475392236     -1258.082591770        11.375039756
        26           26.000000         4.387512502       342.343764660     -1262.696376947     -1258.240668917        11.364905760
        27           27.000000         4.302833374       335.736519293     -1262.684371838     -1258.308628749        10.810968466
        28           28.000000         3.967939940       309.605840723     -1262.372894966     -1258.327563082        11.390815020
        29           29.000000         4.094821308       319.505993753     -1262.651038418     -1258.474521573        11.371264502
        30           30.000000         4.100505196       319.949489635     -1262.695348551     -1258.508836127        11.373974763
        31           31.000000         4.050755038       316.067641706     -1262.690815497     -1258.549831677        10.802580044
        32           32.000000         4.033103666       314.690360796     -1262.737085813     -1258.609647862        10.785075247
        33           33.000000         3.760494691       293.419542160     -1262.360796519     -1258.502102563        10.822358556
        34           34.000000         3.960010138       308.987103326     -1262.625522324     -1258.563618694        10.843213767
        35           35.000000         4.151264822       323.910103143     -1262.763385647     -1258.506457692        10.804109342
        36           36.000000         4.008646409       312.782038124     -1262.483664970     -1258.365645064        11.371047497
        37           37.000000         4.136078958       322.725198101     -1262.572556631     -1258.323499869        10.823442213
        38           38.000000         4.145247161       323.440564041     -1262.496033887     -1258.234227676        11.388208017
        39           39.000000         4.294796221       335.109405573     -1262.545961201     -1258.131033239        11.351873107
        40           40.000000         4.492682430       350.549842443     -1262.714228522     -1258.097743721        10.817061529
        41           41.000000         4.256798404       332.144555795     -1262.279192611     -1257.894956154        10.872619033
        42           42.000000         4.407247362       343.883613525     -1262.361073516     -1257.822838675        10.811225362
        43           43.000000         4.679531858       365.129114141     -1262.586846687     -1257.772629858        10.794507273
        44           44.000000         4.736868923       369.602944471     -1262.534903301     -1257.659489621        10.815164141
        45           45.000000         4.897348180       382.124634845     -1262.672430756     -1257.632538822        10.795945309
        46           46.000000         4.727898927       368.903043946     -1262.350415618     -1257.475906194        10.828344338
        47           47.000000         4.778238146       372.830854504     -1262.364160775     -1257.435252992        10.828578062
        48           48.000000         5.030837864       392.540413892     -1262.689052776     -1257.503303306        10.259395704
        49           49.000000         4.812517825       375.505589745     -1262.406045606     -1257.434268300        10.250576019
        50           50.000000         4.768497210       372.070799941     -1262.419821876     -1257.487781530        10.238395058
        51           51.000000         4.765520276       371.838519191     -1262.460295884     -1257.526936074        10.255977370
        52           52.000000         4.749593663       370.595815856     -1262.515032450     -1257.593281727        10.816461109
        53           53.000000         4.919007547       383.814646978     -1262.820523544     -1257.724940334        10.847406097
        54           54.000000         4.600390818       358.953988333     -1262.540427617     -1257.759060931        10.794420831
        55           55.000000         4.392146621       342.705350339     -1262.386054757     -1257.808785118        10.798371598
        56           56.000000         4.510679130       351.954068257     -1262.687086834     -1257.987228476        11.394087672
        57           57.000000         4.362948769       340.427134050     -1262.526836316     -1257.970700572        10.812160440
        58           58.000000         4.343816357       338.934292228     -1262.620667900     -1258.079785664        10.848544978
        59           59.000000         4.161556916       324.713162770     -1262.506808641     -1258.144456133        10.273330525
        60           60.000000         3.999658124       312.080710605     -1262.356955809     -1258.153008931        10.813835889
        61           61.000000         4.254482623       331.963862717     -1262.779403839     -1258.317204468        10.841844432
        62           62.000000         4.106793157       320.440119385     -1262.617655833     -1258.299737845        10.291103847
        63           63.000000         3.936709751       307.169047561     -1262.439441532     -1258.288406084        10.831402428
        64           64.000000         3.987456841       311.128682985     -1262.540827067     -1258.335990414        10.882216863
        65           65.000000         3.947085238       307.978614078     -1262.416976399     -1258.249542193        10.818361327
        66           66.000000         4.200140525       327.723720135     -1262.727752574     -1258.304297911        10.887448795
        67           67.000000         4.155483221       324.239251565     -1262.645072325     -1258.263273639        10.795786195
        68           68.000000         3.962721179       309.198637255     -1262.338260822     -1258.146347617        10.862312540
        69           69.000000         4.216084644       328.967789438     -1262.611919344     -1258.163805203        10.816434547
        70           70.000000         4.260238983       332.413013292     -1262.542580146     -1258.047390001        10.917224169
        71           71.000000         4.307000687       336.061681604     -1262.489957592     -1257.945052809        10.352946892
        72           72.000000         4.353170418       339.664160122     -1262.482371141     -1257.888298118        10.892454863
        73           73.000000         4.236071151       330.527273611     -1262.222006932     -1257.742037502        10.812594749
        74           74.000000         4.568519181       356.467145025     -1262.527257708     -1257.711753257        10.287984490
        75           75.000000         4.700960469       366.801121023     -1262.621349534     -1257.670074877        10.846417911
        76           76.000000         4.558218700       355.663430952     -1262.370805209     -1257.558839094        10.864642471
        77           77.000000         4.672129136       364.551503094     -1262.519111633     -1257.589721723        10.860522799
        78           78.000000         4.624206970       360.812287589     -1262.452248196     -1257.567136873        11.395626143
        79           79.000000         4.738735458       369.748584338     -1262.570176951     -1257.566762987        11.403365150
        80           80.000000         4.789527359       373.711716193     -1262.567465483     -1257.509292802        10.863929972
        81           81.000000         4.510607265       351.948460833     -1262.166163608     -1257.382914381        10.861003861
        82           82.000000         4.652493254       363.019377127     -1262.413875191     -1257.484722645        10.833412580
        83           83.000000         4.727091196       368.840019303     -1262.518356255     -1257.510394789        10.855425790
        84           84.000000         4.606246980       359.410926168     -1262.396127857     -1257.504710365        10.898348115
        85           85.000000         4.601291086       359.024233439     -1262.474741598     -1257.583950046        10.321054190
        86           86.000000         4.350638287       339.466585907     -1262.205437625     -1257.561018177        10.299506247
        87           87.000000         4.400777838       343.378816980     -1262.340852121     -1257.642081105        10.316041239
        88           88.000000         4.493369310       350.603437577     -1262.541182344     -1257.745508645        10.296214350
        89           89.000000         4.185807427       326.605353703     -1262.202765259     -1257.710409849        10.327400140
        90           90.000000         4.176060213       325.844809309     -1262.300142782     -1257.813459115        10.267001458
        91           91.000000         4.153199423       324.061053977     -1262.324280775     -1257.856421744        10.291572265
        92           92.000000         4.138760495       322.934429997     -1262.322497260     -1257.865086339        10.312147550
        93           93.000000         4.249103274       331.544129014     -1262.558226426     -1257.986462705        10.820886530
        94           94.000000         3.971173921       309.858178111     -1262.238149044     -1257.940400396        10.820631862
        95           95.000000         3.986352186       311.042490254     -1262.292450965     -1257.975789478        10.302340217
        96           96.000000         4.184083455       326.470837624     -1262.554196847     -1258.036023441        10.271072850
        97           97.000000         4.073774626       317.863787548     -1262.382040048     -1257.970377571        10.281786777
        98           98.000000         4.123401612       321.736024759     -1262.465298022     -1258.000271755        10.871449426
        99           99.000000         4.027302108       314.237683486     -1262.346145707     -1257.973532194        10.879977606
       100          100.000000         4.047435654       315.808640592     -1262.360756366     -1257.964397487        11.423838578
       101          101.000000         4.319446479       337.032787536     -1262.650639968     -1257.978559793        10.842866704
       102          102.000000         4.160603204       324.638747678     -1262.385454243     -1257.868446762        11.436725929
       103          103.000000         4.130629053       322.299959216     -1262.312650358     -1257.821938995        10.853615358
       104          104.000000         4.261837165       332.537714400     -1262.486236855     -1257.860607657        10.829744235
       105          105.000000         4.269349069       333.123844552     -1262.419167808     -1257.782246922        10.871895127
       106          106.000000         4.471462341       348.894105832     -1262.654643188     -1257.811715861        10.846643120
       107          107.000000         4.352696623       339.627191399     -1262.443922434     -1257.715778913        10.911537819
       108          108.000000         4.270042981       333.177988347     -1262.288004935     -1257.638590084        10.836174875
       109          109.000000         4.543069406       354.481379297     -1262.608534812     -1257.682056721        10.834653117
       110          110.000000         4.498170949       350.978094315     -1262.489141514     -1257.603351885        10.830454059
       111          111.000000         4.505835136       351.576106655     -1262.520221355     -1257.622506864        10.864343345
       112          112.000000         4.503522753       351.395678667     -1262.529834904     -1257.630103136        11.390406899
       113          113.000000         4.414443287       344.445088844     -1262.382812312     -1257.567812973        11.968989179
       114          114.000000         4.659447527       363.561997125     -1262.722939435     -1257.658459841        11.954420902
       115          115.000000         4.566527569       356.311745796     -1262.606504078     -1257.630304430        11.415325552
       116          116.000000         4.365417675       340.619774968     -1262.342986573     -1257.563335391        11.448352993
       117          117.000000         4.460579493       348.044951492     -1262.523527873     -1257.644175207        11.449436195
       118          118.000000         4.367740001       340.800978715     -1262.418385550     -1257.627293592        11.412862279
       119          119.000000         4.418340350       344.749164417     -1262.533300350     -1257.687026607        10.869188689
       120          120.000000         4.345762591       339.086150702     -1262.556245026     -1257.777952501        11.943080828
       121          121.000000         4.108200145       320.549902252     -1262.308641561     -1257.763470317        11.950010799
       122          122.000000         4.286295031       334.446084585     -1262.620716802     -1257.893070429        11.956549086
       123          123.000000         4.272016529       333.331978062     -1262.626881414     -1257.909055345        13.135078847
       124          124.000000         4.130453275       322.286243805     -1262.501723466     -1257.921092829        12.007122837
       125          125.000000         4.124373429       321.811852582     -1262.579638585     -1258.000829172        12.021345489
       126          126.000000         3.962906029       309.213060551     -1262.349315467     -1257.927841089        12.015007190
       127          127.000000         4.111179214       320.782349566     -1262.608095840     -1258.034283604        12.580597170
       128          128.000000         4.160712389       324.647267049     -1262.694201645     -1258.066731367        12.546071291
       129          129.000000         3.934468579       306.994175999     -1262.394590501     -1257.989358741        12.577702582
       130          130.000000         4.063538274       317.065077240     -1262.562104992     -1258.023907285        11.984136716
       131          131.000000         4.101796357       320.050234822     -1262.588926808     -1258.008537221        12.560156710
       132          132.000000         4.132462125       322.442988035     -1262.654019103     -1258.039029098        12.060055897
       133          133.000000         4.208630925       328.386199312     -1262.768810315     -1258.073688917        13.088023998
       134          134.000000         3.998997434       312.029159041     -1262.410586756     -1257.921213471        13.160199396
       135          135.000000         4.147326372       323.602798338     -1262.573436380     -1257.931917781        13.142304458
       136          136.000000         4.344234883       338.966948534     -1262.730631682     -1257.888241669        12.642519794
       137          137.000000         4.261521786       332.513106355     -1262.543461355     -1257.779748111        11.998532429
       138          138.000000         4.361214613       340.291823255     -1262.666383976     -1257.798918243        12.569634430
       139          139.000000         4.307106840       336.069964419     -1262.550826929     -1257.733359257        12.007139847
       140          140.000000         4.376432878       341.479256533     -1262.585061937     -1257.694126667        12.017447844
       141          141.000000         4.555850555       355.478652101     -1262.779982927     -1257.705328623        12.582616679
       142          142.000000         4.351947677       339.568753489     -1262.468629361     -1257.593521667        11.967977896
       143          143.000000         4.393615314       342.819947830     -1262.534595205     -1257.613505824        12.004503042
       144          144.000000         4.506836724       351.654257392     -1262.667952611     -1257.629209901        11.997436523
       145          145.000000         4.468378097       348.653451983     -1262.588527588     -1257.583714155        11.980558008
       146          146.000000         4.571109771       356.669280569     -1262.763726030     -1257.651559914        12.006470054
       147          147.000000         4.381039462       341.838693735     -1262.545171931     -1257.618432391        12.024197638
       148          148.000000         4.325256614       337.486134012     -1262.488798632     -1257.613292116        12.574208803
       149          149.000000         4.480436535       349.594333887     -1262.711020067     -1257.675709711        12.577015407
       150          150.000000         4.289711714       334.712677541     -1262.494897439     -1257.645667040        12.606492385
       151          151.000000         4.257501536       332.199418984     -1262.548991414     -1257.727434999        13.181229725
       152          152.000000         4.214387336       328.835353856     -1262.535484741     -1257.752549666        13.126651742
       153          153.000000         4.116833659       321.223548076     -1262.430552925     -1257.740767478        12.768617027
       154          154.000000         4.260863116       332.461712396     -1262.688024415     -1257.849808518        12.033327147
       155          155.000000         4.066091510       317.264298198     -1262.484263223     -1257.836456169        11.998111390
       156          156.000000         3.928526402       306.530526631     -1262.347441245     -1257.833051663        12.077815212
       157          157.000000         4.045562320       315.662470264     -1262.482509819     -1257.847010936        11.478434138
       158          158.000000         3.951480963       308.321598646     -1262.355370259     -1257.809916880        11.488396913
       159          159.000000         4.016205457       313.371846805     -1262.509356568     -1257.895215578        12.003858671
       160          160.000000         3.978529178       310.432085566     -1262.520422767     -1257.940030680        12.019568048
       161          161.000000         3.885692825       303.188357712     -1262.375221354     -1257.883855420        12.077562653
       162          162.000000         4.119139165       321.403439482     -1262.656296674     -1257.927667844        11.512945503
       163          163.000000         4.066649550       317.307840300     -1262.537756207     -1257.857741053        10.925986275
       164          164.000000         4.004767299       312.479363422     -1262.467790304     -1257.845864577        11.512419574
       165          165.000000         4.113479802       320.961857204     -1262.582347567     -1257.847930309        11.484900244
       166          166.000000         4.082809389       318.568741622     -1262.477346090     -1257.769803179        11.483792394
       167          167.000000         4.286865195       334.490572635     -1262.719191087     -1257.803730772        12.042799868
       168          168.000000         4.306058370       335.988155570     -1262.716982102     -1257.778344230        12.003065065
       169          169.000000         4.180154122       326.164244150     -1262.502272720     -1257.685578910        11.465548612
       170          170.000000         4.382003058       341.913880105     -1262.741682016     -1257.719132150        11.469979785
       171          171.000000         4.377512246       341.563476198     -1262.671201181     -1257.649000272        11.498341404
       172          172.000000         4.372518253       341.173810683     -1262.619202912     -1257.597811589        10.907535791
       173          173.000000         4.415286870       344.510910991     -1262.720218588     -1257.651809106        12.021071449
       174          174.000000         4.281639285       334.082811352     -1262.529552447     -1257.590536052        12.039231695
       175          175.000000         4.469381020       348.731706962     -1262.765452577     -1257.634380581        12.596685685
       176          176.000000         4.521773313       352.819712369     -1262.827048997     -1257.639089658        11.451961152
       177          177.000000         4.351439495       339.529101684     -1262.622049851     -1257.599918517        12.046889111
       178          178.000000         4.405054075       343.712478261     -1262.739980614     -1257.659746207        12.001602076
       179          179.000000         4.307826769       336.126138191     -1262.625916202     -1257.638401607        12.088734560
       180          180.000000         4.329827250       337.842766354     -1262.647563842     -1257.633554493        11.452486247
       181          181.000000         4.371346757       341.082402530     -1262.794790911     -1257.734708009        11.447331384
       182          182.000000         4.142134562       323.197697748     -1262.520840346     -1257.685487967        11.453933731
       183          183.000000         4.226147247       329.752942614     -1262.687492328     -1257.763731314        12.053895868
       184          184.000000         4.271844875       333.318584436     -1262.772970981     -1257.799049368        12.024377123
       185          185.000000         4.158589381       324.481615435     -1262.671092066     -1257.805993516        11.455751397
       186          186.000000         4.178419824       326.028922316     -1262.781334795     -1257.892034651        12.601507574
       187          187.000000         4.003176475       312.355236482     -1262.592181553     -1257.873851487        12.563091755
       188          188.000000         4.045688344       315.672303485     -1262.645427070     -1257.880423181        12.568292156
       189          189.000000         4.183297544       326.409515436     -1262.793531088     -1257.886699048        11.445461132
       190          190.000000         4.017853713       313.500455018     -1262.576208135     -1257.830631700        12.000171907
       191          191.000000         4.056614995       316.524875669     -1262.632951362     -1257.844527341        12.022719719
       192          192.000000         4.069791613       317.553005588     -1262.627456640     -1257.821777500        12.005235992
       193          193.000000         4.052409743       316.196753053     -1262.561159840     -1257.768816515        11.440459892
       194          194.000000         4.175113021       325.770902946     -1262.742645282     -1257.823528985        11.987855263
       195          195.000000         4.002144491       312.274713973     -1262.491301435     -1257.741121766        12.038212202
       196          196.000000         4.011941400       313.039135929     -1262.520608154     -1257.756715592        12.608557947
       197          197.000000         4.190355265       326.960207127     -1262.719450615     -1257.773169363        12.018709548
       198          198.000000         4.135325347       322.666396233     -1262.571456647     -1257.676175311        11.423140682
       199          199.000000         4.218294287       329.140200969     -1262.649592170     -1257.667304127        10.910879754
       200          200.000000         4.169016819       325.295235516     -1262.558317246     -1257.621247006        10.913995348
       201          201.000000         4.141675387       323.161869757     -1262.506366666     -1257.592615620        10.954627074
       202          202.000000         4.344618915       338.996913324     -1262.773847963     -1257.653046058        10.889447413
       203          203.000000         4.237442510       330.634276381     -1262.646819938     -1257.629010530        12.014588438
       204          204.000000         4.202199260       327.884356739     -1262.612208915     -1257.625511364        11.993856497
       205          205.000000         4.286530384       334.464448413     -1262.742453048     -1257.667258317        12.637072675
       206          206.000000         4.246325499       331.327388036     -1262.595433614     -1257.556233624        11.459384948
       207          207.000000         4.385246678       342.166969557     -1262.768134821     -1257.585732577        11.545368537
       208          208.000000         4.302859655       335.738569923     -1262.681823957     -1257.577458100        11.456644662
       209          209.000000         4.180386431       326.182370519     -1262.514722545     -1257.528554930        10.902936324
       210          210.000000         4.323174467       337.323670649     -1262.743288707     -1257.610039781        11.439470030
       211          211.000000         4.244300734       331.169402018     -1262.658618495     -1257.599892154        10.899876773
       212          212.000000         4.219044130       329.198708799     -1262.696702188     -1257.658919094        11.436383359
       213          213.000000         4.202834859       327.933950499     -1262.725180883     -1257.699307053        11.412531905
       214          214.000000         4.068804292       317.475968087     -1262.547076972     -1257.651009968        10.896980710
       215          215.000000         4.215710810       328.938620380     -1262.793106150     -1257.745920108        11.404290944
       216          216.000000         4.179974910       326.150260786     -1262.754183741     -1257.738463040        11.422831491
       217          217.000000         4.046870465       315.764540705     -1262.594972923     -1257.708175940        11.461667977
       218          218.000000         4.120131267       321.480850051     -1262.725871668     -1257.761687603        11.487624146
       219          219.000000         4.035850741       314.904706418     -1262.605937598     -1257.721930849        10.907050282
       220          220.000000         4.087509915       318.935508846     -1262.691500225     -1257.751774619        10.872417398
       221          221.000000         4.107044079       320.459698060     -1262.716222422     -1257.752887431        10.913555801
       222          222.000000         3.952667181       308.414155498     -1262.491574378     -1257.678626743        10.871488973
       223          223.000000         4.089835195       319.116943070     -1262.697605617     -1257.743547146        10.911082238
       224          224.000000         4.102321905       320.091241691     -1262.705113255     -1257.734571309        10.854746461
       225          225.000000         4.034446809       314.795161981     -1262.638838442     -1257.732216644        10.878912143
       226          226.000000         4.106105592       320.386470870     -1262.755319622     -1257.773104870        10.880778424
       227          227.000000         3.999668576       312.081526165     -1262.594206448     -1257.714526133        10.896661341