#     Step Nr.          Time[fs]        Kin.[a.u.]          Temp[K]            Pot.[a.u.]        Cons Qty[a.u.]        UsedTime[s]
         0            0.000000         3.844830508       300.000000000     -1262.930447073     -1259.085141542         0.000000000
         1            1.000000         3.810027579       297.284437215     -1262.863866444     -1259.052513849        53.376902351
         2            2.000000         3.869168925       301.899049883     -1262.905563911     -1259.034221829        13.742515521
         3            3.000000         3.845778405       300.073961424     -1262.883640358     -1259.034833836        13.715718836
         4            4.000000         3.917142541       305.642279905     -1262.988201465     -1259.067167871        13.749831893
         5            5.000000         3.867547879       301.772564768     -1262.934671804     -1259.062355912        13.727919696
         6            6.000000         3.777411359       294.739496359     -1262.837760413     -1259.054716230        13.739982225
         7            7.000000         3.897344583       304.097507618     -1262.992608484     -1259.088771074        13.729899770
         8            8.000000         3.914819609       305.461028785     -1262.991758444     -1259.069562478        13.762876244
         9            9.000000         3.904700063       304.671432524     -1262.978591294     -1259.065616939        13.084501380
        10           10.000000         3.892817770       303.744294716     -1262.981064348     -1259.079064737        13.079435039
        11           11.000000         3.804987921       296.891208534     -1262.835688667     -1259.020615219        13.111070966
        12           12.000000         3.897608532       304.118102766     -1262.954238389     -1259.045643511        13.084581489
        13           13.000000         3.921787619       306.004720660     -1262.981403759     -1259.047706301        13.094191626
        14           14.000000         3.824801282       298.437182627     -1262.856732369     -1259.019093924        13.096841838
        15           15.000000         3.853312882       300.661852833     -1262.878004968     -1259.010936658        13.084726460
        16           16.000000         3.853454564       300.672907904     -1262.919781205     -1259.051648554        13.750325941
        17           17.000000         3.928589357       306.535438837     -1263.004473947     -1259.060271208        13.102682732
        18           18.000000         3.970886963       309.835787645     -1263.064931266     -1259.077465198        13.053065794
        19           19.000000         3.821383705       298.170519864     -1262.937368966     -1259.098433010        13.091507217
        20           20.000000         3.831070612       298.926358688     -1262.950331206     -1259.100753419        13.744137259
        21           21.000000         3.875515474       302.394251102     -1262.999360235     -1259.104377920        13.975947142
        22           22.000000         3.873637397       302.247710696     -1262.978622637     -1259.084548572        13.726630468
        23           23.000000         3.930718926       306.701602373     -1263.033470812     -1259.081331301        13.704763331
        24           24.000000         3.856301751       300.895064912     -1262.932882337     -1259.054164462        13.730742941
        25           25.000000         3.883659704       303.029719718     -1262.957221148     -1259.050151147        13.763076354
        26           26.000000         3.975877762       310.225203993     -1263.076868717     -1259.076561773        14.390519569
        27           27.000000         3.890524491       303.565357341     -1262.967696996     -1259.051701707        14.373705130
        28           28.000000         3.877973577       302.586049161     -1262.939047606     -1259.034563838        13.756272642
        29           29.000000         3.861942103       301.335163744     -1262.923002938     -1259.033508917        13.742218615
        30           30.000000         3.858969478       301.103219252     -1262.898601733     -1259.011037877        13.756375859
        31           31.000000         3.951580102       308.329334173     -1263.038779856     -1259.057546011        13.752056366
        32           32.000000         3.883429974       303.011794615     -1262.833736011     -1258.919572618        13.108309111
        33           33.000000         3.870998874       302.041835088     -1262.816134344     -1258.913324917        13.080072254
        34           34.000000         3.932784640       306.862783558     -1262.932921105     -1258.967235433        13.072512940
        35           35.000000         3.866398866       301.682910930     -1262.839152983     -1258.938749504        13.115877721
        36           36.000000         3.876091782       302.439218645     -1262.854199336     -1258.943001973        13.106408421
        37           37.000000         3.844368005       299.963912345     -1262.822354899     -1258.941779193        12.432518244
        38           38.000000         3.817373649       297.857627876     -1262.779673339     -1258.924999239        12.440272573
        39           39.000000         3.931311639       306.747849892     -1262.930580743     -1258.960866571        12.476678019
        40           40.000000         3.889360357       303.474523636     -1262.870357995     -1258.941470383        12.480458047
        41           41.000000         3.849711088       300.380816256     -1262.868361434     -1258.978002345        13.116598222
        42           42.000000         3.886091073       303.219431729     -1262.925852713     -1258.997991823        13.085654696
        43           43.000000         3.848687929       300.300982342     -1262.931220157     -1259.039635755        13.111595564
        44           44.000000         3.900764497       304.364352769     -1263.008119174     -1259.063327907        13.058953868
        45           45.000000         3.864746719       301.553999131     -1262.965589715     -1259.055676170        13.745492306
        46           46.000000         3.810101511       297.290205851     -1262.927182901     -1259.070786017        13.729443824
        47           47.000000         3.931221623       306.740826249     -1263.094200614     -1259.115549679        13.711012501
        48           48.000000         3.923463617       306.135493472     -1263.061491721     -1259.089435860        13.120831735
        49           49.000000         3.884019999       303.057832344     -1263.022845060     -1259.089063782        13.754318800
        50           50.000000         3.867759828       301.789102539     -1263.018730049     -1259.100041922        13.997077318
        51           51.000000         3.806608526       297.017659285     -1262.952833136     -1259.094139744        14.344724828
        52           52.000000         3.908887168       304.998139166     -1263.049935660     -1259.087806815        13.731085200
        53           53.000000         3.924867634       306.245044561     -1263.091343500     -1259.112051313        14.997881286
        54           54.000000         3.841774793       299.761572150     -1262.973346026     -1259.075962933        14.424054341
        55           55.000000         3.892452446       303.715789651     -1263.059230439     -1259.109990878        15.030784402
        56           56.000000         3.891008204       303.603100012     -1263.039124087     -1259.090137032        14.380919207
        57           57.000000         3.921960166       306.018183998     -1263.141460270     -1259.160317836        15.708890669
        58           58.000000         3.928572052       306.534088580     -1263.170663582     -1259.181688158        15.003716432
        59           59.000000         3.811146668       297.371756137     -1262.991756231     -1259.118991942        14.371795876
        60           60.000000         3.872973072       302.195875467     -1263.079017541     -1259.143227036        14.379413730
        61           61.000000         3.939637409       307.397483486     -1263.174437480     -1259.170760545        15.032559600
        62           62.000000         3.907546885       304.893561111     -1263.133213563     -1259.160386688        15.693450866
        63           63.000000         3.920637006       305.914941978     -1263.168502001     -1259.181337622        15.673781227
        64           64.000000         3.841369858       299.729976374     -1263.083034765     -1259.173891905        15.681255143
        65           65.000000         3.861565676       301.305792399     -1263.111890993     -1259.181318665        15.675292533
        66           66.000000         3.926133315       306.343801639     -1263.180462611     -1259.184075400        14.379802696
        67           67.000000         3.823629384       298.345743147     -1263.049256625     -1259.154124682        15.031167261
        68           68.000000         3.831060293       298.925553546     -1263.080566932     -1259.176776995        15.690471293
        69           69.000000         3.861156187       301.273841219     -1263.106002646     -1259.170890841        15.655866588
        70           70.000000         3.858632577       301.076931866     -1263.091641902     -1259.157825972        15.641233545
        71           71.000000         3.908286498       304.951270770     -1263.140873608     -1259.156169699        15.104935816
        72           72.000000         3.811380975       297.390038421     -1263.020046141     -1259.131017568        15.057174532
        73           73.000000         3.801150817       296.591811408     -1263.014817118     -1259.134815573        15.037169525
        74           74.000000         3.885409058       303.166216260     -1263.119604149     -1259.154141585        14.389433408
        75           75.000000         3.835079827       299.239185086     -1263.041712660     -1259.125372266        14.401282845
        76           76.000000         3.853943202       300.711034742     -1263.024042687     -1259.087642943        13.709407829
        77           77.000000         3.842254180       299.798977253     -1263.009121201     -1259.083218395        13.706982989
        78           78.000000         3.836294700       299.333977776     -1262.927271842     -1259.006145724        13.078831658
        79           79.000000         3.929613122       306.615320018     -1263.045463225     -1259.029828025        13.769609872
        80           80.000000         3.852683218       300.612722204     -1262.923760955     -1258.983856197        13.086534107
        81           81.000000         3.811987901       297.437394916     -1262.877045346     -1258.976658707        13.135391923
        82           82.000000         3.881701242       302.876907089     -1262.968848011     -1258.997576967        13.081511904
        83           83.000000         3.883210477       302.994667918     -1262.954159463     -1258.980198480        13.126521572
        84           84.000000         3.936603922       307.160790059     -1263.028114340     -1258.999568870        13.105376069
        85           85.000000         3.891674798       303.655112226     -1262.979183956     -1258.994366470        13.112038087
        86           86.000000         3.824513696       298.414743188     -1262.891634186     -1258.972792448        13.088824719
        87           87.000000         3.924905351       306.247987448     -1263.010235641     -1258.989819300        13.106784590
        88           88.000000         3.911325182       305.188369681     -1262.972437373     -1258.964399448        13.094704743
        89           89.000000         3.880151123       302.755956194     -1262.934510976     -1258.956447227        13.121626589
        90           90.000000         3.902283713       304.482892371     -1262.974046855     -1258.972651741        13.078019708
        91           91.000000         3.870998349       302.041794057     -1262.936070433     -1258.964761447        13.092994899
        92           92.000000         3.962388236       309.172658776     -1263.035793300     -1258.971886085        13.106750056
        93           93.000000         3.948118162       308.059209879     -1263.001684442     -1258.950814573        13.116637401
        94           94.000000         3.821430142       298.174143175     -1262.865594895     -1258.940193325        13.106915172
        95           95.000000         3.849546952       300.368009258     -1262.963457191     -1259.008744534        13.090229552
        96           96.000000         3.845709106       300.068554220     -1262.946419701     -1258.994355971        13.780116690
        97           97.000000         3.876654392       302.483117316     -1262.999179276     -1259.014985553        13.744564222
        98           98.000000         3.901735198       304.440093498     -1263.062713391     -1259.052248919        13.791989990
        99           99.000000         3.798322457       296.371123402     -1262.923464218     -1259.015236050        13.750885315
       100          100.000000         3.853335493       300.663617103     -1263.012264785     -1259.047869689        14.350981792
       101          101.000000         3.884866356       303.123870975     -1263.058367860     -1259.061283784        14.397236118
       102          102.000000         3.818977884       297.982801264     -1262.986555066     -1259.054210937        14.389082452
       103          103.000000         3.839042655       299.548392097     -1263.009534914     -1259.055997448        13.759166503
       104          104.000000         3.793705990       296.010915088     -1262.941579798     -1259.032267012        14.407715173
       105          105.000000         3.835971315       299.308745122     -1263.012871744     -1259.060200245        14.376004504
       106          106.000000         3.909755135       305.065863860     -1263.099476850     -1259.071922797        15.027548952
       107          107.000000         3.813737610       297.573919215     -1262.969097272     -1259.036466737        13.741902504
       108          108.000000         3.821826640       298.205080738     -1262.993618905     -1259.051831755        13.760153759
       109          109.000000         3.843370085       299.886047760     -1262.979688417     -1259.015300747        13.239157004
       110          110.000000         3.824847953       298.440824251     -1262.946561689     -1258.999650354        13.081054533
       111          111.000000         3.870716632       302.019812620     -1263.039817785     -1259.046001130        13.121271877
       112          112.000000         3.799751119       296.482597445     -1262.940351209     -1259.016474994        13.100031005
       113          113.000000         3.813481081       297.553903017     -1262.934738802     -1258.996132477        13.100358771
       114          114.000000         3.899487398       304.264704715     -1263.034175708     -1259.008564800        13.091382386
       115          115.000000         3.815898864       297.742555050     -1262.905250503     -1258.962233327        13.075038655
       116          116.000000         3.808953136       297.200601791     -1262.913836737     -1258.976796464        13.108017631
       117          117.000000         3.792051122       295.881790965     -1262.898314045     -1258.977227678        13.068544932
       118          118.000000         3.765417589       293.803660355     -1262.855703696     -1258.960328990        13.105623230
       119          119.000000         3.869413510       301.918134088     -1263.000359724     -1259.000080549        13.068686731
       120          120.000000         3.817060146       297.833166220     -1262.900517147     -1258.951685721        13.071876442
       121          121.000000         3.786393433       295.440339279     -1262.849719531     -1258.930673960        13.111428954
       122          122.000000         3.851533956       300.523048855     -1262.949044533     -1258.963992822        13.117724098
       123          123.000000         3.806000433       296.970211660     -1262.774487417     -1258.834112651        13.084530095
       124          124.000000         3.836788404       299.372499925     -1262.833920566     -1258.861918566        13.085363198
       125          125.000000         3.779282231       294.885474652     -1262.776548925     -1258.861230186        13.092337020
       126          126.000000         3.715843319       289.935536415     -1262.720139502     -1258.867472135        13.103341300
       127          127.000000         3.854309109       300.739585312     -1262.873031126     -1258.881132369        13.074860472
       128          128.000000         3.845601005       300.060119421     -1262.849251850     -1258.865293377        13.106138716
       129          129.000000         3.819991312       298.061875877     -1262.819747655     -1258.860643867        12.438744169
       130          130.000000         3.837626473       299.437891833     -1262.857772769     -1258.880292527        12.447425388
       131          131.000000         3.771395725       294.270115450     -1262.766793488     -1258.854819753        13.120059816
       132          132.000000         3.861409479       301.293604831     -1262.903274713     -1258.900580266        13.100073827
       133          133.000000         3.871826906       302.106443819     -1262.917799853     -1258.903979104        12.463911057
       134          134.000000         3.805956933       296.966817490     -1262.794969951     -1258.846320558        12.435239507
       135          135.000000         3.908222625       304.946286983     -1262.941069927     -1258.889465186        13.100920163
       136          136.000000         3.908720273       304.985116877     -1262.941415543     -1258.888612726        13.102185085
       137          137.000000         3.926369258       306.362211487     -1262.960564750     -1258.889406282        12.465199688
       138          138.000000         3.950530677       308.247450879     -1263.033636506     -1258.937598325        13.071093816
       139          139.000000         3.842603295       299.826217609     -1262.879431679     -1258.890601248        13.065883722
       140          140.000000         3.908426226       304.962173336     -1262.972817691     -1258.917453763        13.124016296
       141          141.000000         3.936944656       307.187376429     -1263.094029753     -1259.009425377        13.124954488
       142          142.000000         3.877060550       302.514808553     -1263.011413132     -1258.985966588        13.729258863
       143          143.000000         3.949666428       308.180016255     -1263.117901937     -1259.019121541        13.704856994
       144          144.000000         3.908023785       304.930772092     -1263.025886759     -1258.968009240        13.743867900
       145          145.000000         3.913455752       305.354611370     -1263.050483011     -1258.986432780        13.772720039
       146          146.000000         3.929579615       306.612705582     -1263.093480148     -1259.012558797        13.768841576
       147          147.000000         3.778416023       294.817887119     -1262.880914433     -1258.950419203        13.081148515
       148          148.000000         3.818370174       297.935383581     -1263.011937058     -1259.040778866        13.764624199
       149          149.000000         3.857664411       301.001388926     -1263.061884880     -1259.050731000        13.723293103
       150          150.000000         3.835412755       299.265162384     -1262.980645691     -1258.991048788        13.764675558
       151          151.000000         3.907531121       304.892331062     -1263.111786592     -1259.049381038        14.404321713
       152          152.000000         3.817939348       297.901767557     -1262.992671355     -1259.019169606        13.720441004
       153          153.000000         3.815515956       297.712677963     -1263.017510840     -1259.045765067        14.413751677
       154          154.000000         3.875446632       302.388879581     -1263.065362968     -1259.033027478        13.761798693
       155          155.000000         3.778759121       294.844658016     -1262.973756122     -1259.037458938        14.408525016
       156          156.000000         3.816889512       297.819852184     -1263.036796787     -1259.061743490        13.768119939
       157          157.000000         3.823172385       298.310084974     -1263.082736834     -1259.100786176        14.415203020
       158          158.000000         3.809603467       297.251345062     -1263.075378796     -1259.106396334        15.032648196
       159          159.000000         3.903112277       304.547542626     -1263.205638190     -1259.142552625        15.014400611
       160          160.000000         3.814236113       297.612815778     -1263.027361459     -1259.052558506        13.750172941
       161          161.000000         3.802977933       296.734375495     -1263.042847035     -1259.078728644        15.026440049
       162          162.000000         3.877651835       302.560944639     -1263.098202115     -1259.058845633        13.716761293
       163          163.000000         3.818877024       297.974931499     -1263.019598447     -1259.038456022        14.359006926
       164          164.000000         3.886457522       303.248024590     -1263.115491752     -1259.066217288        13.754732318
       165          165.000000         3.876572279       302.476710253     -1263.101551033     -1259.061607451        13.720272075
       166          166.000000         3.835362425       299.261235313     -1263.037226815     -1259.037944509        13.747805351
       167          167.000000         3.944220601       307.755095509     -1263.157286993     -1259.048598973        13.084512105
       168          168.000000         3.869251518       301.905494375     -1263.032221794     -1258.997945212        13.122982703
       169          169.000000         3.848733342       300.304525823     -1262.979206795     -1258.964899037        13.114549607
       170          170.000000         3.917067070       305.636391149     -1263.070613712     -1258.987424197        13.089563839
       171          171.000000         3.885938893       303.207557656     -1262.985564413     -1258.932948084        13.125867458
       172          172.000000         3.987199359       311.108592502     -1263.177672090     -1259.023231399        13.719894456
       173          173.000000         3.976038418       310.237739455     -1263.160074431     -1259.016205976        13.751936771
       174          174.000000         3.911607866       305.210426676     -1263.026853087     -1258.946814913        13.111636797
       175          175.000000         3.994418980       311.671916757     -1263.157505547     -1258.994045592        13.073352216
       176          176.000000         3.920318411       305.890083005     -1263.037541874     -1258.947553252        13.073076326
       177          177.000000         3.896149390       304.004250503     -1263.019828662     -1258.953379873        13.067156361
       178          178.000000         3.914743927       305.455123587     -1263.056067913     -1258.970393276        13.102815108
       179          179.000000         3.851594311       300.527758192     -1262.958481437     -1258.935325597        13.084492182
       180          180.000000         3.968541714       309.652795231     -1263.111385232     -1258.970649837        13.091950331
       181          181.000000         3.960915248       309.057726161     -1263.143236728     -1259.009473730        13.766707972
       182          182.000000         3.864034451       301.498423066     -1263.022185207     -1258.984645507        13.778751997
       183          183.000000         3.908392635       304.959552340     -1263.080574210     -1258.998025079        13.109703548
       184          184.000000         3.843730087       299.914137582     -1262.987894707     -1258.969357779        13.099877620
       185          185.000000         3.875377966       302.383521788     -1263.029182962     -1258.978357594        13.131464845
       186          186.000000         3.919710457       305.842646248     -1263.094038840     -1258.998236800        13.100366268
       187          187.000000         3.828787670       298.748227895     -1262.939259889     -1258.933737787        13.125909496
       188          188.000000         3.916863725       305.620524712     -1263.049731779     -1258.955498876        13.097049272
       189          189.000000         3.931724121       306.780034604     -1263.043415425     -1258.933675298        13.105857261
       190          190.000000         3.876066609       302.437254435     -1262.964626214     -1258.909893533        13.119279947
       191          191.000000         3.934871567       307.025619892     -1262.969388368     -1258.855200428        12.481546365
       192          192.000000         3.865663341       301.625520221     -1262.934132655     -1258.888497813        13.090160374
       193          193.000000         3.907251639       304.870524025     -1262.852967562     -1258.765093908        13.131881822
       194          194.000000         3.986600953       311.061900727     -1262.993351350     -1258.825463380        13.808193816
       195          195.000000         3.902520980       304.501405576     -1262.874988131     -1258.790500282        13.101649346
       196          196.000000         3.955659148       308.647609268     -1262.962460999     -1258.824152164        13.092280855
       197          197.000000         3.943951738       307.734116960     -1262.944121200     -1258.816822134        12.464688241
       198          198.000000         3.901254296       304.402570242     -1262.905555805     -1258.820251863        12.480209831
       199          199.000000         3.961474120       309.101333154     -1262.996344495     -1258.850112710        13.077694925
       200          200.000000         3.871041449       302.045157067     -1262.875331238     -1258.818817049        13.140196221
       201          201.000000         3.905625755       304.743661348     -1262.897641836     -1258.805834998        13.148451013
       202          202.000000         3.979530092       310.510183756     -1262.958380508     -1258.791947841        12.418982074
       203          203.000000         3.900662209       304.356371530     -1262.857247491     -1258.768948378        12.455708995
       204          204.000000         3.937322627       307.216868345     -1262.997822828     -1258.872128968        13.083850568
       205          205.000000         3.881381873       302.851987712     -1262.931678174     -1258.861186560        13.077472638
       206          206.000000         3.833577991       299.122001590     -1262.870122172     -1258.846708521        13.106419802
       207          207.000000         3.906949835       304.846975155     -1262.982833985     -1258.885329677        13.105687244
       208          208.000000         3.810433222       297.316088242     -1262.847128203     -1258.845425759        12.443894131
       209          209.000000         3.822739428       298.276302652     -1262.834109771     -1258.819408260        12.501204737
       210          210.000000         3.884305137       303.080080772     -1262.842647099     -1258.765693314        12.426750774
       211          211.000000         3.836459632       299.346846890     -1262.801551398     -1258.771759812        13.083639158
       212          212.000000         3.901221680       304.400025333     -1262.900271228     -1258.805041259        13.114894720
       213          213.000000         3.832983940       299.075649635     -1262.826973809     -1258.799307040        13.130951550
       214          214.000000         3.767307820       293.951149136     -1262.732919126     -1258.770277112        12.466511343
       215          215.000000         3.860238223       301.202215355     -1262.871376365     -1258.815170795        12.428107183
       216          216.000000         3.806216287       296.987054056     -1262.799929798     -1258.797119132        12.453389017
       217          217.000000         3.826368461       298.559464688     -1262.848121057     -1258.824548413        12.472152876
       218          218.000000         3.855065623       300.798613724     -1262.890278555     -1258.837406954        13.125149317
       219          219.000000         3.784530639       295.294991372     -1262.793534127     -1258.810607618        13.075830724
       220          220.000000         3.872323038       302.145155389     -1262.926992673     -1258.855698712        12.422167590
       221          221.000000         3.827708857       298.664051549     -1262.870448526     -1258.843196119        12.469322372
       222          222.000000         3.749839269       292.588133113     -1262.783136553     -1258.833202017        12.442675103
       223          223.000000         3.823908452       298.367517901     -1262.883765150     -1258.859232413        12.413147252
       224          224.000000         3.772911119       294.388356817     -1262.791917358     -1258.817865572        12.479139788
       225          225.000000         3.814300270       297.617821760     -1262.816091011     -1258.800153141        12.427370204
       226          226.000000         3.844802548       299.997818322     -1262.872781511     -1258.825852697        12.421345545
       227          227.000000         3.765162021       293.783719181     -1262.767417439     -1258.799652732        12.454169925