#     Step Nr.          Time[fs]        Kin.[a.u.]          Temp[K]            Pot.[a.u.]        Cons Qty[a.u.]        UsedTime[s]
         0            0.000000         3.844830508       300.000000000     -1262.468991903     -1258.623686372         0.000000000
         1            1.000000         3.439539837       268.376447002     -1261.937702627     -1258.496887161        41.658425491
         2            2.000000         3.360121231       262.179663638     -1261.881369878     -1258.519290377        10.854898214
         3            3.000000         3.503195392       273.343289213     -1262.041927576     -1258.536167000        10.280332807
         4            4.000000         3.442023662       268.570252016     -1261.870787912     -1258.425650628        10.356340084
         5            5.000000         3.775084447       294.557934812     -1262.307600384     -1258.528899337        10.280847128
         6            6.000000         3.590900796       280.186665321     -1261.998685604     -1258.403679775        10.300870489
         7            7.000000         3.610477299       281.714158144     -1261.933423532     -1258.318406557        10.304458521
         8            8.000000         4.129557514       322.216350400     -1262.535659907     -1258.401129885        10.324981079
         9            9.000000         3.942541626       307.624090382     -1262.193756108     -1258.245749443        10.297083572
        10           10.000000         3.895613860       303.962464755     -1262.130877333     -1258.229296232        10.307342060
        11           11.000000         3.850153449       300.415332256     -1262.057680414     -1258.201052867        10.330219042
        12           12.000000         3.787021800       295.489368770     -1261.860410968     -1258.066414359        10.322818365
        13           13.000000         4.346469693       339.141323711     -1262.534801790     -1258.180818617        10.340270776
        14           14.000000         4.238728720       330.734635275     -1262.316671018     -1258.069767544        10.311806317
        15           15.000000         4.050988909       316.085889863     -1262.056192744     -1257.996307291        10.875357971
        16           16.000000         4.325308202       337.490159238     -1262.436215359     -1258.101222135        10.306205135
        17           17.000000         4.174302628       325.707670510     -1262.165646440     -1257.980764507        10.288019650
        18           18.000000         4.262489119       332.588584343     -1262.317678355     -1258.043641939        10.315033942
        19           19.000000         4.080809210       318.412673955     -1262.143710268     -1258.050312886        10.284516193
        20           20.000000         3.762222472       293.554355465     -1261.730699180     -1257.954864342        10.371724062
        21           21.000000         4.255037450       332.007154098     -1262.410149727     -1258.140447438        10.311232518
        22           22.000000         4.271200888       333.268336146     -1262.415276983     -1258.128213811        10.334675863
        23           23.000000         4.090117647       319.138981895     -1262.238774247     -1258.131532206        10.287141643
        24           24.000000         4.095406347       319.551642514     -1262.372823400     -1258.258998659        10.301319256
        25           25.000000         3.784593285       295.299879431     -1261.971383548     -1258.167082407        10.313391078
        26           26.000000         4.026982293       314.212729343     -1262.337511006     -1258.289539899        10.313839387
        27           27.000000         3.987927613       311.165415856     -1262.347145690     -1258.336884028        10.256333821
        28           28.000000         3.574842722       278.933704459     -1261.831054524     -1258.232588993        10.316300534
        29           29.000000         3.869905799       301.956545843     -1262.233646076     -1258.338884255        10.844298493
        30           30.000000         3.913459130       305.354874953     -1262.242557203     -1258.302953842        10.863277309
        31           31.000000         3.945890966       307.885428857     -1262.268309016     -1258.294959510        10.855609696
        32           32.000000         3.939757992       307.406892212     -1262.354546118     -1258.385991560        10.843315054
        33           33.000000         3.446016032       268.881764033     -1261.699344883     -1258.223272606        10.938802641
        34           34.000000         3.723598049       290.540613512     -1262.066654061     -1258.311834973        10.854349896
        35           35.000000         3.961629813       309.113481412     -1262.342889782     -1258.348815929        10.293838177
        36           36.000000         3.735163545       291.443032668     -1261.991862505     -1258.223019291        10.277132913
        37           37.000000         3.900711277       304.360200126     -1262.227974270     -1258.292370659        10.296167519
        38           38.000000         3.804746339       296.872358707     -1262.019284029     -1258.178418200        10.299536232
        39           39.000000         3.994528639       311.680473075     -1262.185651975     -1258.153763964        10.315047063
        40           40.000000         4.209501633       328.454137853     -1262.456263144     -1258.208066628        10.877900396
        41           41.000000         3.719000723       290.181898636     -1261.787831034     -1258.028790242        10.283856131
        42           42.000000         3.820352650       298.090069926     -1261.924515587     -1258.062855489        10.329722695
        43           43.000000         4.051998383       316.164655934     -1262.153156495     -1258.058530944        10.256195225
        44           44.000000         4.101939642       320.061414947     -1262.121884123     -1257.975913758        10.307646886
        45           45.000000         4.356942201       339.958460490     -1262.478336642     -1258.075847752        10.289440375
        46           46.000000         4.020260816       313.688273665     -1262.011109382     -1257.943709642        10.288469411
        47           47.000000         4.043832310       315.527483005     -1262.030369487     -1257.937822121        10.278763678
        48           48.000000         4.373056826       341.215833829     -1262.466284549     -1258.042819098        10.816534061
        49           49.000000         4.058205353       316.648966228     -1262.022804494     -1257.912402120        10.283614457
        50           50.000000         4.068129079       317.423283315     -1262.102753308     -1257.980654398        10.268384635
        51           51.000000         4.043450372       315.497681627     -1262.102895818     -1258.003665812        10.887367535
        52           52.000000         4.067273641       317.356536149     -1262.092851383     -1257.967951913        10.289188620
        53           53.000000         4.443513474       346.713343888     -1262.633740094     -1258.130611440        10.272127952
        54           54.000000         4.066597946       317.303813791     -1262.177454675     -1258.049151384        10.253983855
        55           55.000000         3.889127315       303.456340138     -1262.025963946     -1258.073134913        10.330651049
        56           56.000000         4.091651213       319.258641224     -1262.360530148     -1258.203165684        10.290169537
        57           57.000000         3.923364035       306.127723398     -1262.149032983     -1258.157905460        10.292805567
        58           58.000000         4.069593788       317.537569943     -1262.397063414     -1258.257649333        10.302686587
        59           59.000000         3.892342543       303.707214265     -1262.211911041     -1258.247674924        10.286156148
        60           60.000000         3.744840259       292.198076141     -1262.013116609     -1258.194397746        10.275033850
        61           61.000000         4.173093890       325.613356469     -1262.598646288     -1258.349636948        10.284320146
        62           62.000000         3.948813627       308.113474833     -1262.299990476     -1258.273137177        10.281957470
        63           63.000000         3.745387482       292.240774257     -1262.100790671     -1258.275346732        10.283268694
        64           64.000000         3.775985214       294.628218758     -1262.197334021     -1258.339352398        10.265647575
        65           65.000000         3.657618268       285.392419224     -1261.983149557     -1258.241652361        10.250642624
        66           66.000000         4.037550327       315.037319711     -1262.478596215     -1258.355262820        10.298383009
        67           67.000000         3.934711368       307.013120017     -1262.349175864     -1258.326701699        10.259119663
        68           68.000000         3.644854013       284.396464691     -1261.954233090     -1258.219741166        10.860133398
        69           69.000000         3.961980838       309.140870825     -1262.367596968     -1258.314142626        10.278058331
        70           70.000000         3.905506280       304.734339109     -1262.210796467     -1258.211925804        10.279995866
        71           71.000000         3.926132899       306.343769186     -1262.215795319     -1258.194424453        10.287786286
        72           72.000000         3.895664675       303.966429759     -1262.180825660     -1258.188060200        10.239648219
        73           73.000000         3.629375015       283.188687277     -1261.767462930     -1258.039213865        10.287443623
        74           74.000000         4.071042816       317.650633055     -1262.297382929     -1258.125701746        10.300544996
        75           75.000000         4.191307012       327.034468997     -1262.395167565     -1258.101315062        10.300896708
        76           76.000000         3.975144249       310.167970263     -1262.087309775     -1258.007697974        10.267940141
        77           77.000000         4.089277335       319.073415009     -1262.284583391     -1258.088932355        10.283027541
        78           78.000000         3.957403860       308.783743668     -1262.045484473     -1257.979789316        10.854022995
        79           79.000000         4.178351195       326.023567451     -1262.300187117     -1258.011602794        10.815878559
        80           80.000000         4.266104560       332.870685783     -1262.428821367     -1258.050431184        10.294179887
        81           81.000000         3.876186054       302.446574356     -1261.912443544     -1257.921949647        10.859643351
        82           82.000000         4.126584070       321.984341958     -1262.275610112     -1258.032740966        10.800533537
        83           83.000000         4.240012738       330.834823216     -1262.394354711     -1258.035968270        10.234746691
        84           84.000000         4.167837958       325.203252738     -1262.290264677     -1258.001910988        10.296168827
        85           85.000000         4.237300734       330.623214034     -1262.446237439     -1258.086244776        10.829937547
        86           86.000000         3.872897152       302.189951737     -1261.994165332     -1257.996445318        10.838951163
        87           87.000000         4.023454323       313.937453015     -1262.210707984     -1258.060377313        10.810561050
        88           88.000000         4.245459251       331.259797407     -1262.507801261     -1258.133317576        10.305006146
        89           89.000000         3.922691801       306.075271144     -1262.101261885     -1258.047397041        10.275368493
        90           90.000000         3.985275137       310.958451478     -1262.263494408     -1258.144983620        10.312430028
        91           91.000000         3.919262582       305.807700031     -1262.208788770     -1258.154247254        10.253098853
        92           92.000000         3.927577150       306.456459545     -1262.198863766     -1258.134006525        10.812238146
        93           93.000000         4.117180838       321.250637415     -1262.510014542     -1258.253525644        10.846584067
        94           94.000000         3.707851101       289.311928772     -1262.018940367     -1258.169813060        10.824676063
        95           95.000000         3.721633325       290.387312302     -1262.079985700     -1258.215267037        10.826862503
        96           96.000000         3.960043020       308.989668941     -1262.398355342     -1258.293419204        10.850179352
        97           97.000000         3.847559342       300.212922287     -1262.204727819     -1258.210466728        10.861223899
        98           98.000000         3.973565613       310.044794250     -1262.419571976     -1258.297530052        10.274535552
        99           99.000000         3.753478050       292.872055746     -1262.130140607     -1258.226458298        10.295148570
       100          100.000000         3.717797866       290.088043548     -1262.051535619     -1258.181917102        10.253994342
       101          101.000000         4.052574581       316.209614877     -1262.491959771     -1258.285941537        10.820240553
       102          102.000000         3.797520777       296.308570868     -1262.103924517     -1258.151333760        10.812388964
       103          103.000000         3.780515926       294.981735962     -1262.091256600     -1258.154143767        10.830338202
       104          104.000000         3.911501546       305.202130841     -1262.233379720     -1258.163779683        10.251146238
       105          105.000000         3.898241760       304.167511526     -1262.130177243     -1258.072341075        10.283179067
       106          106.000000         4.194992939       327.322070218     -1262.516141018     -1258.160023558        10.242186382
       107          107.000000         3.981533450       310.666499486     -1262.242033890     -1258.097809333        10.248200890
       108          108.000000         3.848340839       300.273900048     -1262.041340977     -1258.028817468        10.852752168
       109          109.000000         4.186715264       326.676189357     -1262.462113697     -1258.109711306        10.847442955
       110          110.000000         4.094604989       319.489115044     -1262.281293431     -1258.019428989        10.230075326
       111          111.000000         4.129091008       322.179950386     -1262.341665555     -1258.043737322        10.240908157
       112          112.000000         4.066695604       317.311433770     -1262.273160584     -1258.036038132        10.248921461
       113          113.000000         3.917869589       305.699009154     -1262.047231078     -1257.957382067        10.258005794
       114          114.000000         4.289904666       334.727732972     -1262.554992099     -1258.091523243        10.252545524
       115          115.000000         4.181848647       326.296462566     -1262.411931261     -1258.054840597        10.220839731
       116          116.000000         3.962246950       309.161634647     -1262.161988278     -1258.022859564        10.265478697
       117          117.000000         4.084783446       318.722771067     -1262.384000728     -1258.120723051        10.276631661
       118          118.000000         3.982507375       310.742491732     -1262.217251937     -1258.054630533        10.272312950
       119          119.000000         4.170558504       325.415528324     -1262.479310383     -1258.127005352        10.231534950
       120          120.000000         4.110192620       320.705368763     -1262.442420706     -1258.148802259        10.240671717
       121          121.000000         3.794260457       296.054178376     -1262.037018042     -1258.057721086        10.254290879
       122          122.000000         4.045941894       315.692087192     -1262.409947859     -1258.177407675        10.241347462
       123          123.000000         4.031193437       314.541311653     -1262.393625030     -1258.174228845        10.269016903
       124          124.000000         3.940986719       307.502765858     -1262.317314973     -1258.186544382        10.249708839
       125          125.000000         3.985147557       310.948496853     -1262.439418694     -1258.262930512        10.228814904
       126          126.000000         3.774033004       294.475894036     -1262.143268638     -1258.176386007        10.283906568
       127          127.000000         4.031250009       314.545725756     -1262.488381944     -1258.262803493        10.760519046
       128          128.000000         4.113085598       320.931098728     -1262.606527028     -1258.297571794        10.330708288
       129          129.000000         3.824950609       298.448834166     -1262.222551319     -1258.200218893        10.241782084
       130          130.000000         3.952393890       308.392831451     -1262.427054078     -1258.275825075        10.798947487
       131          131.000000         3.915242448       305.494021600     -1262.338016810     -1258.222485196        10.801473871
       132          132.000000         3.989390305       311.279545055     -1262.382482811     -1258.191358607        10.239913318
       133          133.000000         4.110644439       320.740622756     -1262.537072788     -1258.223215877        10.282356706
       134          134.000000         3.812701995       297.493113405     -1262.112432651     -1258.095060527        10.255099241
       135          135.000000         4.000646760       312.157850737     -1262.342188711     -1258.135460426        10.235096697
       136          136.000000         4.189076123       326.860399732     -1262.532025387     -1258.135387279        10.273482770
       137          137.000000         4.047431183       315.808291724     -1262.310692942     -1258.054178737        10.284736972
       138          138.000000         4.108073028       320.539983703     -1262.438638453     -1258.119960183        10.223015562
       139          139.000000         3.945575083       307.860781448     -1262.182524956     -1258.024824077        10.808204267
       140          140.000000         4.051927985       316.159163044     -1262.269723525     -1258.004163192        10.260927230
       141          141.000000         4.276746469       333.701040372     -1262.560912002     -1258.068948240        10.280574456
       142          142.000000         3.985693683       310.991109300     -1262.159739941     -1257.957210519        10.264223125
       143          143.000000         4.018940423       313.585247558     -1262.231909600     -1257.994558964        10.296217538
       144          144.000000         4.100763491       319.969643531     -1262.341923044     -1258.021145753        10.259195458
       145          145.000000         4.076096060       318.044921728     -1262.268878399     -1257.971133823        10.277351469
       146          146.000000         4.226129627       329.751567808     -1262.519568799     -1258.070108249        10.283744544
       147          147.000000         3.942142802       307.592971386     -1262.165521431     -1257.998355203        10.283374179
       148          148.000000         3.932680981       306.854695364     -1262.163074872     -1258.003742396        10.821219396
       149          149.000000         4.192343621       327.115352310     -1262.493345406     -1258.072675889        10.844190534
       150          150.000000         4.017435285       313.467806390     -1262.241479501     -1257.993995526        10.847769186
       151          151.000000         4.022801134       313.886486691     -1262.317125799     -1258.062578662        10.823874287
       152          152.000000         3.945714765       307.871680453     -1262.246314912     -1258.067167570        10.820108205
       153          153.000000         3.898056082       304.153023699     -1262.166729686     -1258.033589031        10.879249029
       154          154.000000         4.187821135       326.762477009     -1262.578023764     -1258.153424790        10.844553895
       155          155.000000         3.983617686       310.829125802     -1262.323523079     -1258.101386901        10.853771523
       156          156.000000         3.867170646       301.743130511     -1262.211561408     -1258.104198057        10.843674857
       157          157.000000         4.039697542       315.204860124     -1262.471250011     -1258.189690239        10.793677960
       158          158.000000         3.974771334       310.138872903     -1262.338441410     -1258.120109721        10.834777717
       159          159.000000         4.101508012       320.027736202     -1262.533639940     -1258.186856521        10.271823809
       160          160.000000         3.956016674       308.675505887     -1262.383650346     -1258.180629016        10.287049752
       161          161.000000         3.780021610       294.943166030     -1262.151868163     -1258.123186976        10.267303944
       162          162.000000         4.061129785       316.877150466     -1262.543204625     -1258.231766483        10.272522058
       163          163.000000         4.006501371       312.614667589     -1262.432198524     -1258.173682879        10.523190569
       164          164.000000         3.950722181       308.262393295     -1262.378290441     -1258.173864614        10.267388992
       165          165.000000         3.965390022       309.406878711     -1262.434160589     -1258.213388905        10.306693483
       166          166.000000         3.832303038       299.022521024     -1262.223577245     -1258.134244395        10.303114548
       167          167.000000         4.084697775       318.716086425     -1262.541117390     -1258.197734587        10.274341654
       168          168.000000         4.049294225       315.953659048     -1262.493574585     -1258.183877434        10.254134782
       169          169.000000         3.815865029       297.739914985     -1262.180004198     -1258.102063253        10.280974455
       170          170.000000         3.963563314       309.264346411     -1262.391297829     -1258.164024520        10.328602418
       171          171.000000         3.931791379       306.785282537     -1262.328069754     -1258.130914325        10.823390890
       172          172.000000         4.002645871       312.313835078     -1262.402894057     -1258.133225326        10.828485258
       173          173.000000         4.030630251       314.497368046     -1262.445949352     -1258.146608988        10.270336580
       174          174.000000         3.821781614       298.201567450     -1262.138703783     -1258.046554300        10.287648782
       175          175.000000         4.033962730       314.757390852     -1262.402545963     -1258.096574053        10.297687709
       176          176.000000         4.087387310       318.925942329     -1262.447428569     -1258.086323018        10.295429133
       177          177.000000         3.969694069       309.742709856     -1262.272729427     -1258.027598757        10.323746789
       178          178.000000         4.059951246       316.785192755     -1262.425973584     -1258.088864961        10.307871643
       179          179.000000         3.945478852       307.853272890     -1262.250301697     -1258.025933706        10.306110624
       180          180.000000         4.076340585       318.064001216     -1262.418913579     -1258.061944258        10.317604683
       181          181.000000         4.172999156       325.605964677     -1262.571710861     -1258.116269042        10.320307206
       182          182.000000         3.917879577       305.699788507     -1262.237509720     -1258.035372488        10.322690975
       183          183.000000         4.027520717       314.254740915     -1262.418556181     -1258.104994079        10.311537243
       184          184.000000         4.081189240       318.442326486     -1262.475357347     -1258.106292959        10.305059176
       185          185.000000         4.044714522       315.596319236     -1262.420810516     -1258.086359564        10.291993953
       186          186.000000         4.131462504       322.364990764     -1262.551806700     -1258.128713292        10.277374517
       187          187.000000         3.926081077       306.339725632     -1262.278111049     -1258.058503943        10.880564384
       188          188.000000         3.997559413       311.916954800     -1262.405373596     -1258.112424364        10.848404512
       189          189.000000         4.147806565       323.640266317     -1262.621586755     -1258.176464312        10.877157681
       190          190.000000         3.956809828       308.737393233     -1262.371205561     -1258.115133340        10.312259555
       191          191.000000         3.968022202       309.612259384     -1262.438744029     -1258.169551897        10.825929128
       192          192.000000         3.901733961       304.439997004     -1262.349852128     -1258.145054732        10.858427122
       193          193.000000         3.910514002       305.125075863     -1262.361347763     -1258.145900945        10.905342970
       194          194.000000         4.084660849       318.713205189     -1262.625026715     -1258.233526016        10.892250165
       195          195.000000         3.873463986       302.234179933     -1262.353506232     -1258.171288668        10.831018060
       196          196.000000         3.859233468       301.123817534     -1262.353353105     -1258.183519175        10.863055915
       197          197.000000         3.982401135       310.734202146     -1262.508125720     -1258.213268264        10.852780968
       198          198.000000         3.912947258       305.314935148     -1262.394416590     -1258.167144552        10.848573640
       199          199.000000         4.005800054       312.559946072     -1262.513050429     -1258.191056822        10.871815238
       200          200.000000         3.874719583       302.332150266     -1262.326507600     -1258.133730709        10.828395326
       201          201.000000         3.827744710       298.666849015     -1262.231516559     -1258.083907410        10.943525299
       202          202.000000         4.070480722       317.606774617     -1262.546994492     -1258.154815255        10.852493942
       203          203.000000         3.972022412       309.924383153     -1262.407054256     -1258.111450706        10.842935171
       204          204.000000         3.947314013       307.996464660     -1262.390072851     -1258.117318693        10.884611946
       205          205.000000         3.967170974       309.545840715     -1262.421190864     -1258.126722490        10.885260854
       206          206.000000         3.899461812       304.262708313     -1262.290128620     -1258.061523242        10.862656713
       207          207.000000         4.090243825       319.148827179     -1262.537578719     -1258.116321064        10.871691968
       208          208.000000         3.996059670       311.799934580     -1262.418795077     -1258.089807902        10.881221514
       209          209.000000         3.861618271       301.309896203     -1262.257833580     -1258.061420992        10.873484086
       210          210.000000         3.996197346       311.810677049     -1262.410482097     -1258.077635937        10.326516032
       211          211.000000         3.939029111       307.350019908     -1262.282851278     -1258.005297001        10.300324809
       212          212.000000         3.990388367       311.357420675     -1262.370853729     -1258.040065664        10.289498899
       213          213.000000         3.963952294       309.294697307     -1262.377125412     -1258.070887635        10.342677224
       214          214.000000         3.813689993       297.570203807     -1262.189125191     -1258.031307022        10.311427366
       215          215.000000         4.005897436       312.567544482     -1262.479449428     -1258.127591076        10.865101755
       216          216.000000         4.003586944       312.387264054     -1262.428161179     -1258.076730064        10.868492097
       217          217.000000         3.919374170       305.816406863     -1262.330815735     -1258.061726231        10.861190178
       218          218.000000         3.985338846       310.963422521     -1262.437341318     -1258.100423364        10.890187103
       219          219.000000         3.886610182       303.259936163     -1262.291663221     -1258.051615450        10.328442439
       220          220.000000         3.989210986       311.265553391     -1262.428714633     -1258.084215017        10.341573428
       221          221.000000         4.003856285       312.408279844     -1262.469643596     -1258.108614640        10.338333052
       222          222.000000         3.828786237       298.748116120     -1262.238490079     -1258.050679245        10.329665970
       223          223.000000         3.963814646       309.283957073     -1262.450346560     -1258.125681997        10.364542589
       224          224.000000         3.971701859       309.899371418     -1262.438236946     -1258.103826927        10.355448939
       225          225.000000         3.936903761       307.184185553     -1262.387822597     -1258.086355521        10.891708013
       226          226.000000         3.991930726       311.477766123     -1262.487669465     -1258.129316008        10.312440984
       227          227.000000         3.839886574       299.614240360     -1262.273168397     -1258.065019220        10.298862338