#     Step Nr.          Time[fs]        Kin.[a.u.]          Temp[K]            Pot.[a.u.]        Cons Qty[a.u.]        UsedTime[s]
         0            0.000000         3.843405441       300.000000000     -1268.466273658     -1264.622393195         0.000000000
         1            1.000000         3.783665269       295.336934423     -1268.465970583     -1264.680983837        57.131582223
         2            2.000000         3.737336047       291.720670913     -1268.374450195     -1264.634969285        14.540091846
         3            3.000000         3.839312557       299.680526742     -1268.511245858     -1264.668976217        13.944281798
         4            4.000000         3.825928211       298.635801212     -1268.453715246     -1264.624011826        13.357480999
         5            5.000000         3.823124332       298.416942264     -1268.528555002     -1264.700842213        15.164901797
         6            6.000000         3.802211452       296.784571137     -1268.512483760     -1264.704877520        14.549462039
         7            7.000000         3.770570198       294.314788460     -1268.435773699     -1264.659016231        14.614908986
         8            8.000000         3.884367896       303.197356234     -1268.566782493     -1264.675437066        13.972998589
         9            9.000000         3.870809356       302.139033878     -1268.544977361     -1264.666384701        13.930649895
        10           10.000000         3.813161933       297.639319438     -1268.512899456     -1264.691151354        14.552211873
        11           11.000000         3.864773337       301.667887711     -1268.590053678     -1264.715895131        14.645853665
        12           12.000000         3.862625146       301.500209007     -1268.576540974     -1264.703723351        15.184432656
        13           13.000000         3.921078283       306.062814027     -1268.639582218     -1264.707492720        14.606723227
        14           14.000000         3.902209008       304.589958100     -1268.634893382     -1264.720836288        15.220969692
        15           15.000000         3.798165484       296.468759939     -1268.501146436     -1264.690299331        15.188920122
        16           16.000000         3.874486392       302.426047755     -1268.631417063     -1264.743422878        14.668258026
        17           17.000000         3.894377637       303.978674332     -1268.624246995     -1264.715519995        14.560099918
        18           18.000000         3.862160500       301.463940659     -1268.588254278     -1264.710895043        14.569974352
        19           19.000000         3.860834635       301.360449224     -1268.631613579     -1264.754729776        14.559555046
        20           20.000000         3.791974030       295.985481158     -1268.539897180     -1264.731029298        14.565421771
        21           21.000000         3.855126214       300.914873995     -1268.623232218     -1264.750374878        14.542246051
        22           22.000000         3.876899727       302.614422506     -1268.664867391     -1264.769388448        14.571760532
        23           23.000000         3.773324047       294.529742268     -1268.546370841     -1264.753624717        14.556386717
        24           24.000000         3.802086134       296.774789339     -1268.571289542     -1264.748957096        15.146138567
        25           25.000000         3.810601320       297.439448826     -1268.574268219     -1264.742600782        15.238532338
        26           26.000000         3.818770843       298.077127253     -1268.575981448     -1264.735329210        14.623790540
        27           27.000000         3.823369154       298.436052039     -1268.572240342     -1264.726177936        14.614009842
        28           28.000000         3.705374024       289.225850385     -1268.427177467     -1264.698317042        14.508332815
        29           29.000000         3.744669265       292.293070963     -1268.485629957     -1264.716712260        14.548485618
        30           30.000000         3.821829920       298.315905875     -1268.610313192     -1264.763479185        14.529275693
        31           31.000000         3.797896556       296.447768530     -1268.567119568     -1264.743464472        15.251570638
        32           32.000000         3.832197812       299.125179768     -1268.619263664     -1264.760559187        14.506615583
        33           33.000000         3.805172312       297.015683392     -1268.551572688     -1264.719148353        15.201099310
        34           34.000000         3.844526308       300.087490117     -1268.607883900     -1264.735364697        15.172855712
        35           35.000000         3.918418103       305.855171659     -1268.706395487     -1264.759231226        15.198173888
        36           36.000000         3.816069921       297.866304708     -1268.576221497     -1264.730643972        15.221767347
        37           37.000000         3.794536196       296.185473093     -1268.560561880     -1264.735771884        15.128054079
        38           38.000000         3.835636789       299.393611816     -1268.611424123     -1264.744793230        15.224003658
        39           39.000000         3.844700294       300.101070764     -1268.625538603     -1264.749101009        15.209646672
        40           40.000000         3.899746546       304.397748716     -1268.707893239     -1264.775658172        14.586524621
        41           41.000000         3.831672314       299.084161620     -1268.621717999     -1264.756798578        15.144580960
        42           42.000000         3.812049008       297.552449197     -1268.591776252     -1264.745730841        15.216791421
        43           43.000000         3.897809393       304.246542710     -1268.698693134     -1264.766134750        15.182445206
        44           44.000000         3.845277173       300.146099440     -1268.626867397     -1264.746077468        15.244318865
        45           45.000000         3.812960125       297.623567127     -1268.600328700     -1264.751099045        14.583201077
        46           46.000000         3.786602674       295.566215790     -1268.561512153     -1264.737894339        15.217849810
        47           47.000000         3.778691969       294.948739614     -1268.538144531     -1264.721705390        14.565826531
        48           48.000000         3.878305214       302.724128892     -1268.669301442     -1264.752517845        15.194021311
        49           49.000000         3.817808450       298.002006962     -1268.564775049     -1264.707749729        15.166513685
        50           50.000000         3.751884965       292.856298039     -1268.523998799     -1264.732175189        15.192348998
        51           51.000000         3.802234531       296.786372554     -1268.612695342     -1264.769816471        15.178925112
        52           52.000000         3.797580067       296.423064808     -1268.598147541     -1264.759222051        15.209381107
        53           53.000000         3.833757412       299.246915550     -1268.672240875     -1264.796441524        17.683788091
        54           54.000000         3.798833195       296.520878640     -1268.612417507     -1264.770848774        17.150692161
        55           55.000000         3.745634630       292.368423332     -1268.540763099     -1264.751715865        20.224536013
        56           56.000000         3.848008630       300.359305448     -1268.666259627     -1264.774171769        17.071843948
        57           57.000000         3.848563180       300.402591307     -1268.620811079     -1264.727493906        17.153012495
        58           58.000000         3.799737865       296.591493393     -1268.550943104     -1264.705780182        19.773824599
        59           59.000000         3.802421493       296.800966082     -1268.550648068     -1264.702141120        15.807636324
        60           60.000000         3.784602857       295.410118572     -1268.535660705     -1264.704321132        17.691143643
        61           61.000000         3.876769183       302.604232811     -1268.641875529     -1264.717720180        17.134513766
        62           62.000000         3.887726898       303.459545729     -1268.601904817     -1264.666128024        15.184082460
        63           63.000000         3.800634299       296.661465243     -1268.496304815     -1264.646956116        15.198397212
        64           64.000000         3.850706091       300.569857901     -1268.570240103     -1264.670162508        15.202459306
        65           65.000000         3.870117150       302.085003217     -1268.598624307     -1264.678470938        14.573633775
        66           66.000000         3.873655182       302.361167045     -1268.634896611     -1264.710532555        15.234051906
        67           67.000000         3.863473930       301.566461444     -1268.636812392     -1264.721950746        15.164418079
        68           68.000000         3.787713805       295.652946026     -1268.548467755     -1264.708691506        14.617608853
        69           69.000000         3.866095109       301.771059609     -1268.666859108     -1264.748032778        14.578655604
        70           70.000000         3.919695616       305.954888921     -1268.733001951     -1264.759889679        14.583638806
        71           71.000000         3.857331604       301.087017430     -1268.662577424     -1264.751130853        15.272996143
        72           72.000000         3.868374204       301.948956195     -1268.666096715     -1264.742907950        15.199413769
        73           73.000000         3.840917281       299.805784735     -1268.642624812     -1264.746189561        15.234701041
        74           74.000000         3.873807244       302.373036319     -1268.680389022     -1264.750357577        15.212467991
        75           75.000000         3.909040257       305.123176535     -1268.736658930     -1264.770674424        14.618297298
        76           76.000000         3.801918179       296.761679515     -1268.600660871     -1264.741074078        14.516227420
        77           77.000000         3.815470709       297.819532757     -1268.634157335     -1264.760306242        14.515271600
        78           78.000000         3.877350288       302.649591356     -1268.745988168     -1264.809541600        15.183262657
        79           79.000000         3.882133893       303.022979403     -1268.735427169     -1264.793467982        15.202844515
        80           80.000000         3.903140093       304.662634656     -1268.726922646     -1264.763216001        15.181763958
        81           81.000000         3.829632671       298.924955678     -1268.631643570     -1264.740696864        14.612594780
        82           82.000000         3.849139650       300.447588133     -1268.649258725     -1264.738061552        14.579964969
        83           83.000000         3.927843872       306.590907345     -1268.754728052     -1264.764069280        14.572797596
        84           84.000000         3.865476593       301.722780891     -1268.671738405     -1264.742672698        14.555332322
        85           85.000000         3.859598545       301.263965331     -1268.669552055     -1264.745589284        15.170447093
        86           86.000000         3.872501899       302.271146650     -1268.670190937     -1264.732543421        14.587991331
        87           87.000000         3.893054765       303.875416584     -1268.681147482     -1264.722154358        13.970539548
        88           88.000000         3.966620837       309.617673488     -1268.794754248     -1264.761379181        13.937690396
        89           89.000000         3.896726128       304.161987628     -1268.701472156     -1264.737152050        13.968274467
        90           90.000000         3.863751218       301.588105411     -1268.664714742     -1264.732526956        13.948705807
        91           91.000000         3.922277323       306.156406037     -1268.760682566     -1264.769114692        13.338810973
        92           92.000000         3.894612841       303.997033370     -1268.708206852     -1264.743430066        13.969452258
        93           93.000000         3.901853797       304.562231861     -1268.753421198     -1264.780518792        14.582833275
        94           94.000000         3.859463519       301.253425771     -1268.712012442     -1264.780606802        14.609487996
        95           95.000000         3.829139271       298.886442985     -1268.677290042     -1264.775317662        13.959269222
        96           96.000000         3.907242883       304.982881130     -1268.804813279     -1264.823838525        13.953435026
        97           97.000000         3.851512910       300.632834746     -1268.732863054     -1264.806705038        14.027016677
        98           98.000000         3.798640240       296.505817405     -1268.674674846     -1264.800484943        13.940022245
        99           99.000000         3.824942699       298.558876287     -1268.691072390     -1264.789683135        13.942996368
       100          100.000000         3.822749398       298.387676494     -1268.670702948     -1264.770609229        14.010578990
       101          101.000000         3.883979188       303.167015316     -1268.771457357     -1264.809229257        13.948130302
       102          102.000000         3.853640493       300.798904916     -1268.760346607     -1264.827540662        14.587083463
       103          103.000000         3.799943924       296.607577503     -1268.689268008     -1264.809248100        15.203294296
       104          104.000000         3.879221036       302.795614104     -1268.751578466     -1264.791370731        13.939166404
       105          105.000000         3.879821374       302.842473948     -1268.741389487     -1264.779653442        13.992072601
       106          106.000000         3.868414610       301.952110117     -1268.730952854     -1264.779687279        13.990346696
       107          107.000000         3.864426134       301.640786479     -1268.744658777     -1264.796439418        13.955871016
       108          108.000000         3.841193560       299.827349896     -1268.692953630     -1264.767021545        14.032921646
       109          109.000000         3.944173135       307.865500662     -1268.837755972     -1264.807883762        13.948670946
       110          110.000000         3.955582306       308.756052372     -1268.886372629     -1264.844095503        13.960816588
       111          111.000000         3.877520997       302.662916213     -1268.768761187     -1264.803534696        14.012845907
       112          112.000000         3.885653001       303.297666110     -1268.767358169     -1264.792986090        14.590949245
       113          113.000000         3.867239108       301.860355340     -1268.737625020     -1264.780643908        14.613009907
       114          114.000000         3.885677887       303.299608627     -1268.774419883     -1264.797968458        14.655591596
       115          115.000000         3.871972949       302.229859005     -1268.729306387     -1264.765517156        13.904883765
       116          116.000000         3.781051521       295.132916263     -1268.602757859     -1264.728854762        14.006944463
       117          117.000000         3.837182878       299.514292969     -1268.671441114     -1264.740381985        13.999891300
       118          118.000000         3.877628634       302.671317875     -1268.758535439     -1264.785991696        13.896662954
       119          119.000000         3.832660456       299.161291797     -1268.729420774     -1264.800799434        14.622584999
       120          120.000000         3.815839616       297.848328096     -1268.745246887     -1264.832407635        14.605583321
       121          121.000000         3.755483100       293.137153249     -1268.667630404     -1264.814123145        14.543452289
       122          122.000000         3.805166665       297.015242567     -1268.727133130     -1264.822931152        14.606924102
       123          123.000000         3.871809548       302.217104597     -1268.829003180     -1264.857136103        14.569396190
       124          124.000000         3.802610884       296.815749083     -1268.736196646     -1264.832501397        15.245577723
       125          125.000000         3.808293945       297.259344842     -1268.761672760     -1264.851279677        14.551878013
       126          126.000000         3.824872167       298.553370827     -1268.783052707     -1264.855067726        14.572660644
       127          127.000000         3.836167808       299.435060920     -1268.781368140     -1264.841071333        14.618585669
       128          128.000000         3.861397312       301.404369469     -1268.823112824     -1264.856563948        14.577453118
       129          129.000000         3.784190570       295.377937137     -1268.723764676     -1264.833403240        14.597267732
       130          130.000000         3.804951736       296.998466140     -1268.749101670     -1264.836973996        14.566101559
       131          131.000000         3.893262574       303.891637252     -1268.816016204     -1264.814561581        13.950711127
       132          132.000000         3.887264835       303.423479034     -1268.772263598     -1264.775769432        14.603914697
       133          133.000000         3.894741232       304.007055015     -1268.737882754     -1264.732862852        14.647931337
       134          134.000000         3.862161843       301.464045490     -1268.714215595     -1264.740717150        15.177131157
       135          135.000000         3.861846893       301.439461861     -1268.732234512     -1264.757990348        15.225998156
       136          136.000000         3.928129980       306.613239745     -1268.821490699     -1264.779885616        15.213446435
       137          137.000000         3.874963772       302.463310019     -1268.711009838     -1264.721474538        14.549705930
       138          138.000000         3.850425967       300.547992573     -1268.677164175     -1264.711071451        14.597516149
       139          139.000000         3.884455437       303.204189344     -1268.753133433     -1264.751909137        13.947255250
       140          140.000000         3.880858825       302.923453013     -1268.725657514     -1264.726913438        14.633437838
       141          141.000000         3.905327592       304.833381613     -1268.819832111     -1264.795488957        14.609247550
       142          142.000000         3.845316767       300.149190030     -1268.697042252     -1264.731571859        15.237220552
       143          143.000000         3.800014726       296.613103962     -1268.631656901     -1264.710362665        15.258894574
       144          144.000000         3.856698389       301.037591360     -1268.710652186     -1264.731550364        14.582452372
       145          145.000000         3.832910538       299.180812167     -1268.703544460     -1264.747098664        15.204548065
       146          146.000000         3.812299834       297.572027643     -1268.685556554     -1264.748595808        15.272397388
       147          147.000000         3.804161708       296.936799908     -1268.685418845     -1264.755478355        15.297258452
       148          148.000000         3.776559702       294.782303824     -1268.641630482     -1264.738185355        16.468041833
       149          149.000000         3.830567174       298.997899055     -1268.689706635     -1264.731152590        17.808222935
       150          150.000000         3.805863985       297.069672449     -1268.667793362     -1264.732839183        26.050019026
       151          151.000000         3.756339055       293.203965497     -1268.603672115     -1264.717156197        17.772639774
       152          152.000000         3.804037013       296.927066721     -1268.670179739     -1264.734892231        17.806353420
       153          153.000000         3.813015934       297.627923339     -1268.669902554     -1264.724561242        31.156599786
       154          154.000000         3.836389169       299.452339400     -1268.642083744     -1264.672293525        19.267738789
       155          155.000000         3.834076015       299.271784382     -1268.694342119     -1264.725786587        24.821797699
       156          156.000000         3.804135737       296.934772695     -1268.647098154     -1264.707409672        17.805595271
       157          157.000000         3.873593578       302.356358484     -1268.686475375     -1264.676253836        18.406666115
       158          158.000000         3.892437103       303.827204503     -1268.705942846     -1264.675783588        19.700281829
       159          159.000000         3.864876973       301.675977074     -1268.670845803     -1264.667143241        17.814843506
       160          160.000000         3.886796262       303.386904204     -1268.708182437     -1264.681450633        18.463596970
       161          161.000000         3.892814658       303.856674782     -1268.706481509     -1264.672607278        15.917448953
       162          162.000000         3.944211131       307.868466488     -1268.760651843     -1264.674235877        15.233281385
       163          163.000000         3.949671727       308.294697576     -1268.767027051     -1264.673975760        15.255892061
       164          164.000000         3.870305434       302.099699811     -1268.673800820     -1264.658931067        15.214486241
       165          165.000000         3.881246286       302.953696537     -1268.672041792     -1264.645047518        14.637880821
       166          166.000000         3.904274973       304.751218580     -1268.694947361     -1264.643726097        14.593965419
       167          167.000000         3.916829661       305.731184551     -1268.695382113     -1264.630388856        14.626893077
       168          168.000000         3.932376801       306.944728628     -1268.807719528     -1264.725941047        15.220701896
       169          169.000000         3.883855863       303.157389093     -1268.742776053     -1264.708267954        15.268172942
       170          170.000000         3.918664201       305.874380997     -1268.736501199     -1264.665924898        15.231075749
       171          171.000000         3.957164035       308.879515438     -1268.787010995     -1264.676646597        14.609803803
       172          172.000000         3.902718401       304.629719168     -1268.696997935     -1264.639771770        13.985969763
       173          173.000000         3.881191078       302.949387265     -1268.684662559     -1264.647655311        13.299950749
       174          174.000000         3.865801886       301.748171885     -1268.662688182     -1264.639759533        13.358936373
       175          175.000000         3.900431282       304.451196322     -1268.662145081     -1264.603266926        13.346903838
       176          176.000000         3.958130040       308.954917730     -1268.749783125     -1264.631857840        13.301701825
       177          177.000000         3.911327705       305.301725129     -1268.691976529     -1264.619482469        13.984556541
       178          178.000000         3.902360582       304.601789340     -1268.703967592     -1264.639064554        14.022537790
       179          179.000000         3.933425181       307.026560766     -1268.731297911     -1264.633937518        13.969603132
       180          180.000000         3.933910623       307.064452350     -1268.726008541     -1264.626747243        13.309047699
       181          181.000000         3.948290476       308.186882896     -1268.762022242     -1264.646944805        13.352191146
       182          182.000000         3.905060077       304.812500492     -1268.722308027     -1264.649011078        13.281230360
       183          183.000000         3.891998295       303.792952991     -1268.650157698     -1264.588471045        13.309419133
       184          184.000000         3.937789964       307.367257294     -1268.721282422     -1264.612336729        13.303538337
       185          185.000000         3.918458628       305.858334832     -1268.693299294     -1264.602196960        13.360828768
       186          186.000000         3.907767792       305.023853345     -1268.731795260     -1264.649888250        13.301128026
       187          187.000000         3.898553304       304.304609294     -1268.737744733     -1264.663550027        13.919214297
       188          188.000000         3.887177731       303.416680100     -1268.723380972     -1264.659055495        13.964968998
       189          189.000000         3.928578025       306.648212265     -1268.766349872     -1264.659105077        13.324891865
       190          190.000000         3.914940600       305.583732387     -1268.706718229     -1264.611574282        12.724146377
       191          191.000000         3.889164222       303.571737165     -1268.687733322     -1264.616826889        12.688230298
       192          192.000000         3.911602904       305.323205962     -1268.731066164     -1264.636176960        13.345564306
       193          193.000000         3.895465725       304.063605936     -1268.690123292     -1264.609818156        12.687336057
       194          194.000000         3.893316532       303.895849016     -1268.692367626     -1264.612656842        13.374847218
       195          195.000000         3.877532721       302.663831351     -1268.678351669     -1264.612869689        13.307299171
       196          196.000000         3.851258272       300.612958779     -1268.642349352     -1264.601595066        12.742932200
       197          197.000000         3.895388394       304.057569818     -1268.701343237     -1264.614912059        12.713310532
       198          198.000000         3.903012277       304.652657878     -1268.644624987     -1264.549010641        12.727132972
       199          199.000000         3.892989993       303.870360752     -1268.684630625     -1264.597476067        12.782946229
       200          200.000000         3.897150758       304.195132514     -1268.711896829     -1264.619018240        12.710070971
       201          201.000000         3.874870774       302.456051018     -1268.681558779     -1264.609399324        12.792340633
       202          202.000000         3.886692329       303.378791639     -1268.682222740     -1264.596685255        12.672859106
       203          203.000000         3.868944457       301.993467696     -1268.647775192     -1264.578432311        12.665283315
       204          204.000000         3.831498466       299.070591766     -1268.602436249     -1264.569002970        12.718601502
       205          205.000000         3.854744787       300.885101443     -1268.651088453     -1264.592887103        12.748278283
       206          206.000000         3.869219845       302.014963366     -1268.652129509     -1264.577933265        12.711843498
       207          207.000000         3.889211506       303.575428014     -1268.673757779     -1264.578049896        12.743665639
       208          208.000000         3.907867322       305.031622243     -1268.721773488     -1264.605885551        12.745900072
       209          209.000000         3.889348195       303.586097367     -1268.749434690     -1264.650542609        13.346349906
       210          210.000000         3.906077220       304.891894390     -1268.772340312     -1264.655199761        13.352415577
       211          211.000000         3.911503848       305.315474047     -1268.780808376     -1264.656719264        13.338861104
       212          212.000000         3.889913290       303.630206319     -1268.701881697     -1264.597866064        13.365339182
       213          213.000000         3.900295104       304.440566873     -1268.732918292     -1264.617011114        13.352901902
       214          214.000000         3.901792588       304.557454111     -1268.742317905     -1264.623405873        13.378934719
       215          215.000000         3.926619782       306.495360030     -1268.769510781     -1264.624263234        13.375367966
       216          216.000000         3.958529280       308.986080719     -1268.799129150     -1264.620452945        12.755833000
       217          217.000000         3.944780676       307.912922767     -1268.779266214     -1264.612811534        12.697605409
       218          218.000000         3.953217414       308.571458934     -1268.774998559     -1264.598578460        12.769180726
       219          219.000000         3.957647003       308.917213928     -1268.799593549     -1264.617209715        12.722494200
       220          220.000000         3.948460394       308.200146012     -1268.787345153     -1264.612611808        12.724292744
       221          221.000000         3.957483851       308.904478987     -1268.791026269     -1264.605732292        12.713100415
       222          222.000000         3.937639668       307.355525820     -1268.768446301     -1264.601460451        12.675324030
       223          223.000000         3.932276891       306.936930087     -1268.768717965     -1264.605566439        12.758992463
       224          224.000000         3.941855218       307.684573850     -1268.847064522     -1264.672809874        13.325392604
       225          225.000000         3.923689550       306.266638484     -1268.853577455     -1264.695969629        13.326861627
       226          226.000000         3.917552909       305.787638198     -1268.839129541     -1264.686151835        12.719574850
       227          227.000000         3.901077636       304.501647995     -1268.828249240     -1264.690254665        13.360052731