#     Step Nr.          Time[fs]        Kin.[a.u.]          Temp[K]            Pot.[a.u.]        Cons Qty[a.u.]        UsedTime[s]
         0            0.000000         3.843405441       300.000000000     -1250.762090127     -1246.918209664         0.000000000
         1            1.000000         3.786747573       295.577526017     -1250.689578437     -1246.901508970        47.598236151
         2            2.000000         3.585603387       279.877060237     -1250.480674507     -1246.892945054        12.031594053
         3            3.000000         3.509288539       273.920245435     -1250.413580218     -1246.901436415        11.369978942
         4            4.000000         3.578196804       279.298933635     -1250.441145367     -1246.859423349        11.349376179
         5            5.000000         3.788250774       295.694859560     -1250.679506566     -1246.887081712        12.047047436
         6            6.000000         3.772071529       294.431975973     -1250.609956894     -1246.833061425        12.021644711
         7            7.000000         3.708534090       289.472511771     -1250.516399033     -1246.802412877        12.013160825
         8            8.000000         3.894673349       304.001756400     -1250.720797753     -1246.820054369        12.001454413
         9            9.000000         4.005862110       312.680681556     -1250.809946040     -1246.797362838        11.391587116
        10           10.000000         3.966005128       309.569613888     -1250.772054531     -1246.798641495        11.423139922
        11           11.000000         3.819584348       298.140626025     -1250.569643026     -1246.741957630        12.074907608
        12           12.000000         3.779771263       295.032984749     -1250.467285314     -1246.678738189        12.004266627
        13           13.000000         4.073520937       317.961843903     -1250.782687057     -1246.699696922        11.355378002
        14           14.000000         4.239296738       330.901603000     -1250.914883481     -1246.665336800        11.355889052
        15           15.000000         4.147885250       323.766408207     -1250.789933502     -1246.630931340        12.018257707
        16           16.000000         4.103041523       320.266096226     -1250.719187301     -1246.604108784        11.998774037
        17           17.000000         4.118767575       321.493605455     -1250.717538425     -1246.585759259        12.062457584
        18           18.000000         4.193654053       327.338927733     -1250.781484261     -1246.573771487        12.018096171
        19           19.000000         4.115487319       321.237562473     -1250.745393896     -1246.614729352        11.979416110
        20           20.000000         3.926862736       306.514323997     -1250.515811191     -1246.572634186        12.013378724
        21           21.000000         4.029146702       314.498178513     -1250.658769202     -1246.612157856        11.997565739
        22           22.000000         4.219588430       329.363255626     -1250.884707816     -1246.646419189        12.028634891
        23           23.000000         4.221736151       329.530897723     -1250.901864702     -1246.660086569        11.403247677
        24           24.000000         4.061934168       317.057429696     -1250.768085578     -1246.684715688        11.358685680
        25           25.000000         3.864550760       301.650514277     -1250.562611590     -1246.675247244        11.359199397
        26           26.000000         3.910052851       305.202215370     -1250.672036748     -1246.737808475        11.336659506
        27           27.000000         4.001494149       312.339737019     -1250.773433438     -1246.746363513        11.984189399
        28           28.000000         3.883311377       303.114888817     -1250.644370865     -1246.734061829        12.021741688
        29           29.000000         3.809349346       297.341724987     -1250.589034322     -1246.751291786        12.031146526
        30           30.000000         3.860579519       301.340536014     -1250.676479621     -1246.786120283        11.416858435
        31           31.000000         3.953345948       308.581491699     -1250.791220452     -1246.806678793        11.352236658
        32           32.000000         3.928945819       306.676920715     -1250.788665778     -1246.827078095        11.329902783
        33           33.000000         3.705648148       289.247247362     -1250.572380469     -1246.832679474        11.338281520
        34           34.000000         3.637322522       283.914037483     -1250.467594075     -1246.794886204        12.014437951
        35           35.000000         3.799196293       296.549220585     -1250.651414275     -1246.815519886        12.003304385
        36           36.000000         3.901274316       304.517000001     -1250.757825058     -1246.818505966        11.989626385
        37           37.000000         3.882703762       303.067460974     -1250.728575234     -1246.806459435        11.382576153
        38           38.000000         3.812478337       297.585960803     -1250.620854110     -1246.767608369        11.312797539
        39           39.000000         3.849324955       300.462052215     -1250.628903749     -1246.737468486        11.308329821
        40           40.000000         3.957665063       308.918623586     -1250.748511027     -1246.747367588        12.150049329
        41           41.000000         3.883202464       303.106387537     -1250.634013894     -1246.705944058        11.328640558
        42           42.000000         3.759720451       293.467903035     -1250.513141342     -1246.707196589        11.345321178
        43           43.000000         3.829428933       298.909052738     -1250.595613934     -1246.718629064        12.001908563
        44           44.000000         4.005737324       312.670941298     -1250.745102948     -1246.690439162        11.955495387
        45           45.000000         4.096645157       319.766822895     -1250.856845773     -1246.709829524        11.964469858
        46           46.000000         3.990954677       311.517070335     -1250.719179167     -1246.676368538        12.024556942
        47           47.000000         3.873044062       302.313465602     -1250.562063534     -1246.635695044        11.958338998
        48           48.000000         3.935193991       307.164626607     -1250.690550154     -1246.700568591        11.972015202
        49           49.000000         3.981301920       310.763616840     -1250.760320716     -1246.722735271        11.960269019
        50           50.000000         3.897380225       304.213043680     -1250.662413096     -1246.707242000        11.982923202
        51           51.000000         3.835196673       299.359258239     -1250.597957670     -1246.703485880        11.981003940
        52           52.000000         3.900685279       304.471022288     -1250.668873644     -1246.707433727        11.997058682
        53           53.000000         4.038154634       315.201299683     -1250.834576162     -1246.734142197        11.337865472
        54           54.000000         4.020772090       313.844491665     -1250.787964743     -1246.703336864        11.969106488
        55           55.000000         3.831266640       299.052496400     -1250.651444832     -1246.754762900        11.990186170
        56           56.000000         3.771628169       294.397369231     -1250.651297684     -1246.812751740        11.967239745
        57           57.000000         3.890157852       303.649295728     -1250.804972698     -1246.846401675        11.967024483
        58           58.000000         3.965048819       309.494968406     -1250.925609191     -1246.890614853        11.990415528
        59           59.000000         3.909647589       305.170582356     -1250.869213054     -1246.888071991        12.035822555
        60           60.000000         3.823270955       298.428387023     -1250.787191723     -1246.890904628        11.979459874
        61           61.000000         3.883396378       303.121523639     -1250.873812505     -1246.915893195        11.969820663
        62           62.000000         3.989914690       311.435893309     -1251.003572315     -1246.937596752        11.939035088
        63           63.000000         3.900445679       304.452320120     -1250.971730851     -1246.993669360        12.110979147
        64           64.000000         3.767008836       294.036803569     -1250.830414666     -1246.984280091        11.964696698
        65           65.000000         3.790412782       295.863616775     -1250.859213863     -1246.988209892        11.966009714
        66           66.000000         3.925312564       306.393324127     -1250.995979775     -1246.988599727        11.968841478
        67           67.000000         4.019069926       313.711627962     -1251.105676499     -1247.003015739        11.993121311
        68           68.000000         3.908520514       305.082607607     -1250.986105827     -1246.992456573        11.935375012
        69           69.000000         3.792702188       296.042318169     -1250.844133131     -1246.964808410        11.983156227
        70           70.000000         3.873968635       302.385633850     -1250.953750721     -1246.991691165        11.977089688
        71           71.000000         3.925421687       306.401841842     -1250.999404772     -1246.984406759        11.929017909
        72           72.000000         3.863206986       301.545624958     -1250.930861336     -1246.976595128        12.560453787
        73           73.000000         3.799037220       296.536803999     -1250.848554331     -1246.957009429        11.938928060
        74           74.000000         3.840771722       299.794422954     -1250.866883995     -1246.932181072        11.978538707
        75           75.000000         4.014649171       313.366562433     -1251.096993556     -1246.986961631        11.946239963
        76           76.000000         4.030037587       314.567717268     -1251.100779712     -1246.973856912        12.573317699
        77           77.000000         3.865527728       301.726772285     -1250.926734950     -1246.962829762        12.631289907
        78           78.000000         3.826722831       298.697825852     -1250.881013373     -1246.954467686        12.573504962
        79           79.000000         3.906457691       304.921592376     -1250.956729942     -1246.949013058        12.585665219
        80           80.000000         3.995316804       311.857559520     -1251.004618556     -1246.906578582        11.975354888
        81           81.000000         3.967202172       309.663050030     -1250.971839926     -1246.900428397        11.963955566
        82           82.000000         3.863095640       301.536933783     -1250.835202875     -1246.866430720        11.945724688
        83           83.000000         3.960794483       309.162892876     -1250.981555125     -1246.913627024        11.996273324
        84           84.000000         4.087929586       319.086522215     -1251.122017762     -1246.925448969        12.118789725
        85           85.000000         4.025694531       314.228716625     -1251.054182863     -1246.918304501        12.103846081
        86           86.000000         3.920862923       306.046003940     -1250.957857282     -1246.925281000        11.924520545
        87           87.000000         3.877162608       302.634941891     -1250.920181145     -1246.929806962        11.960809112
        88           88.000000         4.004521086       312.576006916     -1250.999623207     -1246.880385499        11.901744813
        89           89.000000         4.099827626       320.015232996     -1251.162594462     -1246.946490985        12.625608109
        90           90.000000         3.946551839       308.051172250     -1250.960238588     -1246.895837882        12.606779121
        91           91.000000         3.859012692       301.218236085     -1250.916609326     -1246.938221174        12.583741151
        92           92.000000         3.906047777       304.889596174     -1250.972521015     -1246.945594841        11.953241363
        93           93.000000         3.947144446       308.097428677     -1251.028439289     -1246.958906486        11.915876493
        94           94.000000         3.933861818       307.060642809     -1251.032089714     -1246.974327445        11.962898619
        95           95.000000         3.793196032       296.080865517     -1250.903545592     -1246.984974469        11.980371937
        96           96.000000         3.801340242       296.716568144     -1250.919745704     -1246.991610038        12.544377804
        97           97.000000         3.951390766       308.428878460     -1251.109201265     -1247.029593148        11.931730755
        98           98.000000         3.906996694       304.963664653     -1251.088747399     -1247.052098264        11.906482272
        99           99.000000         3.796587504       296.345589478     -1250.976541750     -1247.048906991        12.568858959
       100          100.000000         3.727741418       290.971754692     -1250.903901464     -1247.043781154        12.618594140
       101          101.000000         3.769157618       294.204528433     -1250.863660140     -1246.960839014        11.940214559
       102          102.000000         3.915696804       305.642758510     -1251.022282816     -1246.971640221        11.956991181
       103          103.000000         3.860881332       301.364094211     -1250.939325442     -1246.942213449        11.882873997
       104          104.000000         3.788430411       295.708881243     -1250.854273228     -1246.928367229        11.928441972
       105          105.000000         3.890444381       303.671660978     -1250.970183900     -1246.941042791        11.931654364
       106          106.000000         3.953829306       308.619220615     -1251.018614779     -1246.924854725        11.946725331
       107          107.000000         3.975101704       310.279654213     -1251.032700421     -1246.916421327        11.297734201
       108          108.000000         3.874105914       302.396349295     -1250.938796920     -1246.922278104        11.888253599
       109          109.000000         3.800906972       296.682748948     -1250.824766966     -1246.880254078        11.896204315
       110          110.000000         3.970318672       309.906310863     -1251.060560681     -1246.945452671        11.902690753
       111          111.000000         4.027890976       314.400161839     -1251.103860326     -1246.929960932        11.925700493
       112          112.000000         3.958661071       308.996367777     -1251.011610730     -1246.905711701        11.947083287
       113          113.000000         3.926237068       306.465486986     -1250.977387843     -1246.902697072        11.946667559
       114          114.000000         3.919122636       305.910164523     -1250.962395872     -1246.893615061        11.893196777
       115          115.000000         4.056587843       316.640118145     -1251.113891094     -1246.906424215        11.911462694
       116          116.000000         4.049713354       316.103524544     -1251.041625179     -1246.839774561        11.948962547
       117          117.000000         3.891362767       303.743346325     -1250.825405939     -1246.780658352        11.965052113
       118          118.000000         3.950557083       308.363804722     -1250.930760881     -1246.825595267        11.978084721
       119          119.000000         4.028192466       314.423694856     -1250.987695346     -1246.803650521        11.957714029
       120          120.000000         4.040832580       315.410328843     -1251.031266141     -1246.833310699        12.539911255
       121          121.000000         3.970266119       309.902208802     -1250.921665269     -1246.793000642        11.938992962
       122          122.000000         3.813735881       297.684119414     -1250.754662721     -1246.781289481        12.590437971
       123          123.000000         3.902650685       304.624433589     -1250.903307806     -1246.839815453        11.979286909
       124          124.000000         3.987687097       311.262016814     -1250.976425117     -1246.826676846        11.912040301
       125          125.000000         3.880203222       302.872279377     -1250.848779069     -1246.805297985        11.922593020
       126          126.000000         3.844398456       300.077510518     -1250.838386079     -1246.829529513        11.938291304
       127          127.000000         3.816948585       297.934889476     -1250.797671247     -1246.815116515        11.346304566
       128          128.000000         3.884679576       303.221684699     -1250.878232193     -1246.826817984        11.314326793
       129          129.000000         3.919320412       305.925602095     -1250.935742877     -1246.848559267        11.311284065
       130          130.000000         3.727280232       290.935756480     -1250.684209054     -1246.787971998        11.515119821
       131          131.000000         3.725536174       290.799622692     -1250.694611998     -1246.799091899        12.201945223
       132          132.000000         3.842120161       299.899676413     -1250.837021474     -1246.823915076        11.946301781
       133          133.000000         3.875161009       302.478705547     -1250.820139177     -1246.772991966        12.197293013
       134          134.000000         3.910236065       305.216516287     -1250.879915913     -1246.796698058        12.003487982
       135          135.000000         3.803728887       296.903015677     -1250.718171407     -1246.740483598        11.985757321
       136          136.000000         3.838882224       299.646936759     -1250.745458979     -1246.731672868        11.979068741
       137          137.000000         3.998741971       312.124913630     -1250.936387294     -1246.761788727        11.332320802
       138          138.000000         3.920184803       305.993072802     -1250.818094355     -1246.721083167        11.294737279
       139          139.000000         3.877571675       302.666871931     -1250.770710125     -1246.715358974        11.304083973
       140          140.000000         3.886275237       303.346235263     -1250.744158767     -1246.679164987        11.977108628
       141          141.000000         3.938745607       307.441850763     -1250.774065284     -1246.655662743        11.984545842
       142          142.000000         4.086452764       318.971247725     -1250.952472660     -1246.685396285        11.930798784
       143          143.000000         3.978626255       310.554765777     -1250.796980041     -1246.636733026        11.349787802
       144          144.000000         3.898118120       304.270640661     -1250.692089376     -1246.611366459        11.323688447
       145          145.000000         4.015694621       313.448165845     -1250.841379390     -1246.642093227        11.308403850
       146          146.000000         4.031386352       314.672996110     -1250.869490701     -1246.653494648        11.338575378
       147          147.000000         4.053535635       316.401875645     -1250.911069557     -1246.671880459        11.952102415
       148          148.000000         3.968281811       309.747322152     -1250.827066987     -1246.672074138        12.024797171
       149          149.000000         3.912755672       305.413186201     -1250.727946311     -1246.627433036        11.371705405
       150          150.000000         4.094953801       319.634802822     -1250.973084911     -1246.689308466        11.987165995
       151          151.000000         4.062735679       317.119992227     -1250.926682523     -1246.674011186        11.942476138
       152          152.000000         3.946590493       308.054189452     -1250.804939442     -1246.667296603        11.990013100
       153          153.000000         3.947161631       308.098770026     -1250.835096759     -1246.695777391        11.299919516
       154          154.000000         3.935106003       307.157758663     -1250.805642067     -1246.677272895        11.345268399
       155          155.000000         4.057381521       316.702069276     -1250.972257866     -1246.720489148        11.320989527
       156          156.000000         4.011029693       313.084041306     -1250.949389069     -1246.742816790        11.283949099
       157          157.000000         3.852423047       300.703876212     -1250.745248437     -1246.696144731        11.349118784
       158          158.000000         3.952554124       308.519685256     -1250.863376888     -1246.713023264        11.360197864
       159          159.000000         3.974104104       310.201785765     -1250.900056913     -1246.727015710        11.329598866
       160          160.000000         3.945301042       307.953540349     -1250.865577213     -1246.720196019        11.981019907
       161          161.000000         3.906832349       304.950836559     -1250.871215671     -1246.763168159        11.952900544
       162          162.000000         3.782263281       295.227501143     -1250.675601980     -1246.691019832        11.989658684
       163          163.000000         3.923012742       306.213809720     -1250.856205183     -1246.729791262        11.953637414
       164          164.000000         3.993496625       311.715484046     -1250.979379011     -1246.781372604        11.307419501
       165          165.000000         3.869334013       302.023874825     -1250.826445583     -1246.751492846        11.972646803
       166          166.000000         3.891483604       303.752778327     -1250.910653083     -1246.812464760        12.019371860
       167          167.000000         3.869766158       302.057606208     -1250.884174283     -1246.806625917        11.969645508
       168          168.000000         3.936607381       307.274949861     -1250.966529531     -1246.821065586        11.977551848
       169          169.000000         3.986946793       311.204231784     -1250.997607338     -1246.800711700        11.993062057
       170          170.000000         3.818599731       298.063770991     -1250.709544827     -1246.679913330        11.307222664
       171          171.000000         3.883200385       303.106225240     -1250.756226771     -1246.660941545        11.987440266
       172          172.000000         3.986387131       311.160546953     -1250.813560800     -1246.614019885        12.042892471
       173          173.000000         3.960312261       309.125252685     -1250.703404912     -1246.528849530        12.004849046
       174          174.000000         3.978272559       310.527157723     -1250.745503882     -1246.551890939        12.022319406
       175          175.000000         3.863258610       301.549654515     -1250.589823768     -1246.510132853        12.001164317
       176          176.000000         3.926078276       306.453092406     -1250.684847146     -1246.541259180        11.960886396
       177          177.000000         4.066161459       317.387394172     -1250.866074670     -1246.581294770        11.996272646
       178          178.000000         3.920843620       306.044497260     -1250.695731626     -1246.555138828        12.026546985
       179          179.000000         3.889624112       303.607634271     -1250.676488362     -1246.566006348        12.012512840
       180          180.000000         3.904210031       304.746149542     -1250.697999466     -1246.571830153        11.974039756
       181          181.000000         3.924114927       306.299841639     -1250.712996008     -1246.565818394        11.358179443
       182          182.000000         4.018112612       313.636904046     -1250.863541310     -1246.621243363        11.361300536
       183          183.000000         3.832899973       299.179987488     -1250.644114235     -1246.585905908        11.363780491
       184          184.000000         3.773806642       294.567411572     -1250.600595880     -1246.600406369        11.378554799
       185          185.000000         3.922199939       306.150365765     -1250.807178318     -1246.657531621        11.409086965
       186          186.000000         3.883092970       303.097840909     -1250.739254209     -1246.627638449        11.971689887
       187          187.000000         3.882008786       303.013214040     -1250.788506946     -1246.676909917        11.959474571
       188          188.000000         3.783149773       295.296696926     -1250.643212267     -1246.629430811        11.989520878
       189          189.000000         3.737574868       291.739312303     -1250.573696176     -1246.604489352        11.997294828
       190          190.000000         3.939686822       307.515318043     -1250.838564190     -1246.666252178        12.018244073
       191          191.000000         3.871124932       302.163666388     -1250.756055353     -1246.651294609        11.493558481
       192          192.000000         3.777855311       294.883433623     -1250.645786384     -1246.633312871        12.009807743
       193          193.000000         3.812158229       297.560974518     -1250.714005238     -1246.666275674        12.042080164
       194          194.000000         3.791123904       295.919123926     -1250.667261708     -1246.639630617        12.019996502
       195          195.000000         3.932541659       306.957596767     -1250.788647486     -1246.618665675        11.989098132
       196          196.000000         3.876450017       302.579320072     -1250.700808820     -1246.585973371        12.058951974
       197          197.000000         3.745555314       292.362232205     -1250.524340599     -1246.539483144        12.055305332
       198          198.000000         3.894553988       303.992439538     -1250.718605264     -1246.583853291        12.028075770
       199          199.000000         3.896174851       304.118957305     -1250.765304660     -1246.628021906        12.000381514
       200          200.000000         3.883219237       303.107696800     -1250.717807957     -1246.592572042        12.002746999
       201          201.000000         3.863364896       301.557950712     -1250.710992848     -1246.604708419        12.029105395
       202          202.000000         3.744981212       292.317420247     -1250.535290865     -1246.546511376        11.989699617
       203          203.000000         3.908117252       305.051130676     -1250.740477526     -1246.587700125        12.038451955
       204          204.000000         3.946670185       308.060409849     -1250.770186258     -1246.577970514        11.998216674
       205          205.000000         3.829905603       298.946259652     -1250.612641674     -1246.536306097        12.135764904
       206          206.000000         3.898510125       304.301238895     -1250.716901171     -1246.571089147        11.469731092
       207          207.000000         3.872996264       302.309734629     -1250.628639587     -1246.507464683        11.983389720
       208          208.000000         3.950151719       308.332163682     -1250.748835694     -1246.549622864        12.064913772
       209          209.000000         3.979370997       310.612897127     -1250.803061331     -1246.573722751        12.166085534
       210          210.000000         3.797260236       296.398100100     -1250.564240034     -1246.516109710        11.379965447
       211          211.000000         3.901061741       304.500407262     -1250.712530484     -1246.559715778        12.039499715
       212          212.000000         3.970004638       309.881798719     -1250.774678886     -1246.552016072        12.204961762
       213          213.000000         3.923361892       306.241062894     -1250.711862094     -1246.534919697        11.427804947
       214          214.000000         3.966474932       309.606284743     -1250.770122553     -1246.549134874        12.195329852
       215          215.000000         3.834825154       299.330259002     -1250.596857952     -1246.506586084        12.048870116
       216          216.000000         3.893386964       303.901346646     -1250.676988982     -1246.527235195        12.057265244
       217          217.000000         3.993461763       311.712762835     -1250.816022873     -1246.565252124        12.156182893
       218          218.000000         3.824729099       298.542203611     -1250.583257243     -1246.500269695        11.397431009
       219          219.000000         3.848533942       300.400309142     -1250.651424493     -1246.543707051        11.971002772
       220          220.000000         3.863791152       301.591222515     -1250.668790837     -1246.544893381        11.490065105
       221          221.000000         3.880559310       302.900074117     -1250.659771929     -1246.518183197        11.425239153
       222          222.000000         3.986325066       311.155702432     -1250.789442876     -1246.541148414        11.993101008
       223          223.000000         3.811667947       297.522705171     -1250.613002266     -1246.538418941        12.186251961
       224          224.000000         3.808395900       297.267303024     -1250.620101194     -1246.547874886        12.024415009
       225          225.000000         3.934928702       307.143919230     -1250.787961313     -1246.588283432        12.057036966
       226          226.000000         3.862060650       301.456146800     -1250.684660620     -1246.556919357        12.098651595
       227          227.000000         3.908396486       305.072926514     -1250.780092816     -1246.605087779        12.079322837