#     Step Nr.          Time[fs]        Kin.[a.u.]          Temp[K]            Pot.[a.u.]    
         0            0.000000         3.844830508       300.000000000     -1262.982678056   
         1            1.000000         4.206340648       328.207496182     -1263.544903496   
         2            2.000000         3.880926893       302.816487037     -1263.102681803   
         3            3.000000         3.777733955       294.764667509     -1262.926765149   
         4            4.000000         4.377258430       341.543671720     -1263.766122884   
         5            5.000000         3.862876785       301.408094089     -1263.049597282   
         6            6.000000         3.924432711       306.211108847     -1263.181137051   
         7            7.000000         4.059086117       316.717689496     -1263.392706909   
         8            8.000000         3.711778675       289.618384988     -1262.847009495   
         9            9.000000         4.227058230       329.824023816     -1263.533928301   
        10           10.000000         3.870592657       302.010139200     -1263.061368169   
        11           11.000000         3.618658326       282.352497847     -1262.726519711   
        12           12.000000         4.171552638       325.493097443     -1263.511060151   
        13           13.000000         3.796844182       296.255778322     -1262.939913706   
        14           14.000000         3.929678227       306.620399965     -1263.168149806   
        15           15.000000         3.909197229       305.022332273     -1263.220209660   
        16           16.000000         3.469859979       270.742232031     -1262.634412695   
        17           17.000000         4.083388230       318.613906727     -1263.483052008   
        18           18.000000         3.853131175       300.647674860     -1263.097138442   
        19           19.000000         3.570598069       278.602507532     -1262.684846753   
        20           20.000000         3.975414545       310.189060626     -1263.244293201   
        21           21.000000         3.637131440       283.793896673     -1262.727262106   
        22           22.000000         3.988191315       311.185991676     -1263.203492485   
        23           23.000000         4.035934075       314.911208685     -1263.284399601   
        24           24.000000         3.482307471       271.713470627     -1262.515072161   
        25           25.000000         4.045736910       315.676092952     -1263.312062588   
        26           26.000000         3.960174259       308.999909174     -1263.127707365   
        27           27.000000         3.828320613       298.711784909     -1262.954650436   
        28           28.000000         4.102251565       320.085753291     -1263.425131617   
        29           29.000000         3.576337827       279.050362773     -1262.689052192   
        30           30.000000         3.967039371       309.535572187     -1263.178659713   
        31           31.000000         4.154218915       324.140601713     -1263.497432304   
        32           32.000000         3.627406759       283.035110504     -1262.765366066   
        33           33.000000         4.020875049       313.736200354     -1263.342338018   
        34           34.000000         3.847623096       300.217896784     -1263.087075731   
        35           35.000000         3.856033140       300.874106001     -1263.070113995   
        36           36.000000         4.204578464       328.069998568     -1263.606216405   
        37           37.000000         3.555890591       277.454929420     -1262.755484486   
        38           38.000000         3.809951016       297.278463234     -1263.133800302   
        39           39.000000         4.045723970       315.675083335     -1263.450671079   
        40           40.000000         3.667402803       286.155875685     -1262.894205556   
        41           41.000000         4.028827776       314.356726548     -1263.523002233   
        42           42.000000         3.683332972       287.398856558     -1263.045678871   
        43           43.000000         3.672366565       286.543182351     -1262.981395331   
        44           44.000000         4.146168308       323.512438259     -1263.631374063   
        45           45.000000         3.571711544       278.689388508     -1262.811617825   
        46           46.000000         3.731226609       291.135845958     -1263.069265261   
        47           47.000000         3.872287950       302.142417568     -1263.301562023   
        48           48.000000         3.615582630       282.112510959     -1262.885789622   
        49           49.000000         4.093135539       319.374458495     -1263.566431619   
        50           50.000000         3.675097767       286.756289461     -1263.013401316   
        51           51.000000         3.561269205       277.874605742     -1262.861483122   
        52           52.000000         4.072616331       317.773409440     -1263.536784667   
        53           53.000000         3.649322877       284.745156064     -1262.902194593   
        54           54.000000         3.845687423       300.066862384     -1263.207046412   
        55           55.000000         3.853574455       300.682262555     -1263.234351902   
        56           56.000000         3.575292383       278.968790057     -1262.793225916   
        57           57.000000         4.189451643       326.889700400     -1263.639575581   
        58           58.000000         3.850030444       300.405734622     -1263.116544240   
        59           59.000000         3.657755088       285.403094891     -1262.878752882   
        60           60.000000         4.050591471       316.054879035     -1263.431159718   
        61           61.000000         3.706041323       289.170717568     -1262.879463786   
        62           62.000000         4.024938135       314.053230186     -1263.335119572   
        63           63.000000         3.954451862       308.553408556     -1263.272510244   
        64           64.000000         3.516849167       274.408650227     -1262.652040744   
        65           65.000000         4.091707856       319.263060886     -1263.469910105   
        66           66.000000         3.866677664       301.704664668     -1263.122560248   
        67           67.000000         3.706956068       289.242092245     -1262.901291129   
        68           68.000000         3.942781200       307.642783605     -1263.286517772   
        69           69.000000         3.510361028       273.902401208     -1262.639051025   
        70           70.000000         3.956787177       308.735625812     -1263.271460044   
        71           71.000000         4.003014904       312.342629543     -1263.331833181   
        72           72.000000         3.496129629       272.791970020     -1262.650523777   
        73           73.000000         3.922132903       306.031662112     -1263.277318642   
        74           74.000000         3.733348031       291.301373878     -1262.971607570   
        75           75.000000         3.778242861       294.804375857     -1262.994189257   
        76           76.000000         4.047006202       315.775131787     -1263.394372296   
        77           77.000000         3.493778724       272.608536281     -1262.677552234   
        78           78.000000         3.896674032       304.045186684     -1263.231435174   
        79           79.000000         4.057237349       316.573435992     -1263.414391421   
        80           80.000000         3.671466931       286.472986739     -1262.867772728   
        81           81.000000         3.996627799       311.844263899     -1263.351453132   
        82           82.000000         3.652196505       284.969376226     -1262.767219090   
        83           83.000000         3.732613997       291.244099494     -1262.867626480   
        84           84.000000         4.107314645       320.480809473     -1263.406070100   
        85           85.000000         3.540342678       276.241774763     -1262.617019855   
        86           86.000000         3.800503831       296.541329141     -1263.074485284   
        87           87.000000         3.902663113       304.512495798     -1263.188646858   
        88           88.000000         3.655022903       285.189911076     -1262.803058878   
        89           89.000000         4.039948616       315.224450655     -1263.381799801   
        90           90.000000         3.588577797       280.005409022     -1262.777923721   
        91           91.000000         3.612469160       281.869576736     -1262.805590061   
        92           92.000000         4.060441039       316.823409807     -1263.421809306   
        93           93.000000         3.605974271       281.362801064     -1262.771654371   
        94           94.000000         3.815161297       297.685005030     -1263.123015292   
        95           95.000000         3.776180200       294.643432963     -1263.068336335   
        96           96.000000         3.556811573       277.526790748     -1262.717873399   
        97           97.000000         4.068672344       317.465672578     -1263.424015497   
        98           98.000000         3.642309498       284.197924218     -1262.841891099   
        99           99.000000         3.577740418       279.159802481     -1262.772693855   
       100          100.000000         3.978311398       310.415092859     -1263.374227541   
       101          101.000000         3.656433292       285.299959340     -1262.865072797   
       102          102.000000         3.974561361       310.122489317     -1263.329077918   
       103          103.000000         3.827594818       298.655153444     -1263.123733783   
       104          104.000000         3.515137792       274.275117044     -1262.688068601   
       105          105.000000         4.078453645       318.228876635     -1263.491262667   
       106          106.000000         3.772131769       294.327546646     -1263.079827222   
       107          107.000000         3.707186176       289.260046786     -1263.024507955   
       108          108.000000         3.946230772       307.911942820     -1263.326399021   
       109          109.000000         3.593333984       280.376519285     -1262.781154830   
       110          110.000000         4.027935636       314.287115663     -1263.394225105   
       111          111.000000         3.925220586       306.272584250     -1263.291690546   
       112          112.000000         3.519904744       274.647067245     -1262.746574215   
       113          113.000000         3.984185335       310.873417668     -1263.426517260   
       114          114.000000         3.749314455       292.547183587     -1263.046686071   
       115          115.000000         3.798270861       296.367097521     -1263.121366615   
       116          116.000000         3.970246425       309.785808506     -1263.376617949   
       117          117.000000         3.500555335       273.137293878     -1262.704611247   
       118          118.000000         3.956082418       308.680635661     -1263.332253910   
       119          119.000000         3.965066960       309.381671182     -1263.327373935   
       120          120.000000         3.604270258       281.229842289     -1262.837284970   
       121          121.000000         3.954474148       308.555147455     -1263.341004011   
       122          122.000000         3.669167477       286.293567611     -1262.907793349   
       123          123.000000         3.841698572       299.755624912     -1263.123709196   
       124          124.000000         4.082014016       318.506681118     -1263.477171101   
       125          125.000000         3.529844262       275.422616507     -1262.714257124   
       126          126.000000         3.863029662       301.420022544     -1263.205057042   
       127          127.000000         3.885632694       303.183665850     -1263.216299668   
       128          128.000000         3.654701275       285.164815514     -1262.862067250   
       129          129.000000         4.000273189       312.128702184     -1263.434855681   
       130          130.000000         3.594361769       280.456714133     -1262.860892445   
       131          131.000000         3.748393869       292.475353112     -1263.059205954   
       132          132.000000         4.081495055       318.466188234     -1263.467049560   
       133          133.000000         3.605878383       281.355319162     -1262.793574830   
       134          134.000000         3.860121171       301.193082155     -1263.194942836   
       135          135.000000         3.787035057       295.490403173     -1263.133231313   
       136          136.000000         3.639590180       283.985744392     -1262.896594155   
       137          137.000000         4.068519763       317.453767144     -1263.523633745   
       138          138.000000         3.619639712       282.429072296     -1263.018842271   
       139          139.000000         3.668948931       286.276515177     -1263.100050281   
       140          140.000000         3.989495863       311.287781453     -1263.544198457   
       141          141.000000         3.633226399       283.489198632     -1263.011892218   
       142          142.000000         3.926638279       306.383202341     -1263.452625328   
       143          143.000000         3.771369187       294.268044724     -1263.252389715   
       144          144.000000         3.599213171       280.835253684     -1262.984349227   
       145          145.000000         4.114984246       321.079244248     -1263.694155429   
       146          146.000000         3.753163962       292.847548484     -1263.188120350   
       147          147.000000         3.771801278       294.301759424     -1263.310476735   
       148          148.000000         3.988621224       311.219536134     -1263.622811795   
       149          149.000000         3.667764921       286.184130593     -1263.131086310   
       150          150.000000         4.054510465       316.360665828     -1263.674737972   
       151          151.000000         3.862309810       301.363854809     -1263.379013653   
       152          152.000000         3.592141669       280.283486717     -1263.008033284   
       153          153.000000         4.059538397       316.752979503     -1263.663705423   
       154          154.000000         3.782530485       295.138925611     -1263.248271085   
       155          155.000000         3.861758874       301.320866968     -1263.342086437   
       156          156.000000         3.982805829       310.765779148     -1263.517330842   
       157          157.000000         3.589598727       280.085068942     -1262.932714636   
       158          158.000000         4.031227630       314.543979580     -1263.550717879   
       159          159.000000         3.928091494       306.496592148     -1263.419404643   
       160          160.000000         3.647728868       284.620780598     -1263.061108794   
       161          161.000000         4.000362888       312.135701108     -1263.553139904   
       162          162.000000         3.706853569       289.234094538     -1263.087402786   
       163          163.000000         3.886165189       303.225214827     -1263.329487274   
       164          164.000000         4.024759335       314.039278968     -1263.630882593   
       165          165.000000         3.568933848       278.472653660     -1263.038546827   
       166          166.000000         3.942936462       307.654898176     -1263.568255720   
       167          167.000000         3.872435303       302.153915094     -1263.455633986   
       168          168.000000         3.666248291       286.065792723     -1263.176679331   
       169          169.000000         3.963275621       309.241898604     -1263.594227400   
       170          170.000000         3.605148344       281.298356568     -1263.074305701   
       171          171.000000         3.818377822       297.935980269     -1263.347539813   
       172          172.000000         4.024335401       314.006200693     -1263.634256137   
       173          173.000000         3.572705876       278.766973056     -1262.983785509   
       174          174.000000         3.872626038       302.168797515     -1263.443493466   
       175          175.000000         3.780119112       294.950773823     -1263.303926069   
       176          176.000000         3.671636352       286.486206137     -1263.093755589   
       177          177.000000         4.012332287       313.069635557     -1263.605830262   
       178          178.000000         3.592556561       280.315859413     -1263.025688523   
       179          179.000000         3.771739010       294.296900907     -1263.273788474   
       180          180.000000         4.018994566       313.589472221     -1263.590883517   
       181          181.000000         3.654938301       285.183309861     -1262.993214328   
       182          182.000000         3.921816797       306.006997313     -1263.430253997   
       183          183.000000         3.731726159       291.174824304     -1263.184394737   
       184          184.000000         3.642728368       284.230607354     -1263.029192184   
       185          185.000000         4.053508831       316.282511461     -1263.643577901   
       186          186.000000         3.656259066       285.286365012     -1263.069631946   
       187          187.000000         3.755125068       293.000567349     -1263.228726998   
       188          188.000000         3.939883272       307.416667414     -1263.493797223   
       189          189.000000         3.655185305       285.202582863     -1263.032197344   
       190          190.000000         3.987576299       311.138003889     -1263.519368305   
       191          191.000000         3.742479297       292.013857715     -1263.206407374   
       192          192.000000         3.589346455       280.065384958     -1263.013814585   
       193          193.000000         4.018844609       313.577771517     -1263.557270800   
       194          194.000000         3.720353016       290.287413807     -1263.108927527   
       195          195.000000         3.842630295       299.828324279     -1263.236863066   
       196          196.000000         3.935957696       307.110367074     -1263.437912111   
       197          197.000000         3.643604824       284.298994429     -1262.998406193   
       198          198.000000         4.045426933       315.651906437     -1263.565002789   
       199          199.000000         3.841238282       299.719709936     -1263.253692234   
       200          200.000000         3.642699304       284.228339566     -1262.983107296   
       201          201.000000         3.989528043       311.290292332     -1263.481664842   
       202          202.000000         3.714254278       289.811548511     -1263.063542718   
       203          203.000000         3.909630375       305.056129224     -1263.338726641   
       204          204.000000         3.955878502       308.664724798     -1263.415950308   
       205          205.000000         3.562610577       277.979268702     -1262.842302269   
       206          206.000000         3.948940096       308.123342848     -1263.396077669   
       207          207.000000         3.823302881       298.320267142     -1263.203732552   
       208          208.000000         3.694464223       288.267392944     -1263.044237923   
       209          209.000000         3.978887066       310.460010486     -1263.496010420   
       210          210.000000         3.657560281       285.387894678     -1263.027913185   
       211          211.000000         3.900918058       304.376334597     -1263.324302574   
       212          212.000000         3.988241395       311.189899256     -1263.386755328   
       213          213.000000         3.602644816       281.103014174     -1262.821809499   
       214          214.000000         3.937228568       307.209529234     -1263.353141594   
       215          215.000000         3.822257687       298.238713975     -1263.131077408   
       216          216.000000         3.777445445       294.742156004     -1263.048680597   
       217          217.000000         4.074105971       317.889641349     -1263.517498850   
       218          218.000000         3.704033147       289.014025897     -1262.979296917   
       219          219.000000         3.913010423       305.319863743     -1263.287875027   
       220          220.000000         4.027221655       314.231405974     -1263.456139715   
       221          221.000000         3.670034741       286.361237484     -1262.973937126   
       222          222.000000         3.940537567       307.467719972     -1263.386335728   
       223          223.000000         3.754047878       292.916517639     -1263.152068116   
       224          224.000000         3.734874702       291.420495201     -1263.093622118   
       225          225.000000         4.046515017       315.736806236     -1263.539908838   
       226          226.000000         3.648491662       284.680298954     -1262.969886403   
       227          227.000000         3.812703559       297.493235434     -1263.272867468   
       228          228.000000         3.914375638       305.426387200     -1263.410278017   
       229          229.000000         3.639871803       284.007718541     -1262.990812659   
       230          230.000000         3.938363200       307.298060990     -1263.443695559   
       231          231.000000         3.699377569       288.650765838     -1263.073403680   
       232          232.000000         3.671291897       286.459329381     -1263.031361526   
       233          233.000000         4.023407983       313.933837250     -1263.485006695   
       234          234.000000         3.669585775       286.326206089     -1262.969257299   
       235          235.000000         3.809667943       297.256375935     -1263.158940485   
       236          236.000000         3.855170885       300.806827025     -1263.261074644   
       237          237.000000         3.622550235       282.656171267     -1262.902517049   
       238          238.000000         3.990541954       311.369404602     -1263.438850751   
       239          239.000000         3.759788688       293.364454961     -1263.071121546   
       240          240.000000         3.694372002       288.260197257     -1262.988667274   
       241          241.000000         4.004032811       312.422053646     -1263.478190220   
       242          242.000000         3.708978894       289.399926969     -1263.045189441   
       243          243.000000         3.885643284       303.184492215     -1263.323956604   
       244          244.000000         3.870906690       302.034642257     -1263.311211914   
       245          245.000000         3.613821950       281.975130709     -1262.946161980   
       246          246.000000         4.010267995       312.908565357     -1263.490836503   
       247          247.000000         3.831463055       298.956979795     -1263.214747754   
       248          248.000000         3.764827538       293.757620522     -1263.125741721   
       249          249.000000         4.001188927       312.200154365     -1263.474326306   
       250          250.000000         3.686314591       287.631502880     -1263.010913971   
       251          251.000000         3.911400673       305.194260006     -1263.397481873   
       252          252.000000         3.899702029       304.281451702     -1263.393505704   
       253          253.000000         3.602197834       281.068137590     -1262.941440535   
       254          254.000000         3.960100039       308.994117956     -1263.452530409   
       255          255.000000         3.805327559       296.917709441     -1263.204109712   
       256          256.000000         3.802032653       296.660618294     -1263.194362328   
       257          257.000000         4.013321610       313.146829316     -1263.481623598   
       258          258.000000         3.661895542       285.726161476     -1262.979046792   
       259          259.000000         3.895148944       303.926188857     -1263.313137949   
       260          260.000000         3.924486294       306.215289804     -1263.347363351   
       261          261.000000         3.662760628       285.793661382     -1262.894114330   
       262          262.000000         3.978402961       310.422237271     -1263.351212498   
       263          263.000000         3.789937351       295.716860024     -1263.197071192   
       264          264.000000         3.784644577       295.303881601     -1263.188157624   
       265          265.000000         3.977462336       310.348843274     -1263.458774817   
       266          266.000000         3.605545958       281.329381098     -1262.968172778   
       267          267.000000         3.820239283       298.081224261     -1263.281153470   
       268          268.000000         3.856373183       300.900638486     -1263.289148337   
       269          269.000000         3.622557997       282.656776877     -1262.982367141   
       270          270.000000         3.894938044       303.909732982     -1263.402684503   
       271          271.000000         3.663601354       285.859260572     -1263.036062982   
       272          272.000000         3.706460717       289.203441543     -1263.086413487   
       273          273.000000         3.960419251       309.019025102     -1263.441071745   
       274          274.000000         3.616726032       282.201727029     -1263.023719715   
       275          275.000000         3.799998061       296.501865550     -1263.296893519   
       276          276.000000         3.833742786       299.134859984     -1263.368885648   
       277          277.000000         3.675022254       286.750397400     -1263.059312030   
       278          278.000000         3.984772087       310.919200116     -1263.504732252   
       279          279.000000         3.714406294       289.823409840     -1263.129752162   
       280          280.000000         3.693626158       288.202001394     -1263.110517710   
       281          281.000000         3.935721069       307.091903845     -1263.484550468   
       282          282.000000         3.653445219       285.066809405     -1263.068644582   
       283          283.000000         3.855670682       300.845824567     -1263.413118895   
       284          284.000000         3.826121502       298.540195274     -1263.373187970   
       285          285.000000         3.655552840       285.231260402     -1263.128474950   
       286          286.000000         4.001567561       312.229697933     -1263.601492181   
       287          287.000000         3.773816270       294.458982960     -1263.264927614   
       288          288.000000         3.754043719       292.916193141     -1263.246836847   
       289          289.000000         3.942223485       307.599266854     -1263.521879713   
       290          290.000000         3.675063701       286.753631364     -1263.125910862   
       291          291.000000         3.907433814       304.884738504     -1263.444092829   
       292          292.000000         3.871533673       302.083563733     -1263.380747291   
       293          293.000000         3.682821198       287.358924438     -1263.143227048   
       294          294.000000         4.020428431       313.701352188     -1263.602010938   
       295          295.000000         3.842605962       299.826425643     -1263.322998407   
       296          296.000000         3.858573820       301.072347313     -1263.332836999   
       297          297.000000         4.020111683       313.676637285     -1263.547520200   
       298          298.000000         3.750653739       292.651683699     -1263.148099567   
       299          299.000000         4.012251417       313.063325551     -1263.502963055   
       300          300.000000         3.982814599       310.766463462     -1263.520480906   
       301          301.000000         3.772689661       294.371077183     -1263.235146339   
       302          302.000000         4.046590861       315.742724053     -1263.631793188   
       303          303.000000         3.857375457       300.978842766     -1263.335670666   
       304          304.000000         3.911174442       305.176607916     -1263.416443524   
       305          305.000000         4.063089996       317.030099572     -1263.654812170   
       306          306.000000         3.766026640       293.851182663     -1263.232677940   
       307          307.000000         4.001821649       312.249523671     -1263.571418949   
       308          308.000000         3.983516904       310.821262141     -1263.498624993   
       309          309.000000         3.792930223       295.950384405     -1263.220167982   
       310          310.000000         4.026546317       314.178711538     -1263.520993358   
       311          311.000000         3.802387974       296.688342918     -1263.158603262   
       312          312.000000         3.877598604       302.556791206     -1263.199535252   
       313          313.000000         4.047729392       315.831560054     -1263.463410557   
       314          314.000000         3.751665514       292.730629301     -1263.041854048   
       315          315.000000         3.949736210       308.185461082     -1263.328635634   
       316          316.000000         3.911681902       305.216203439     -1263.269299955   
       317          317.000000         3.778533890       294.827083943     -1263.023102965   