#     Step Nr.          Time[fs]        Kin.[a.u.]          Temp[K]            Pot.[a.u.]        Cons Qty[a.u.]        UsedTime[s]
         0            0.000000         3.843405441       300.000000000     -1268.284024686     -1264.440144223         0.000000000
         1            1.000000         3.890334516       303.663085388     -1268.373866781     -1264.482196271        47.301832888
         2            2.000000         3.764421797       293.834870217     -1268.198737631     -1264.432122558        13.874911822
         3            3.000000         3.808450488       297.271563967     -1268.259551040     -1264.448070516        13.282352459
         4            4.000000         3.964439935       309.447441471     -1268.466118608     -1264.497793899        13.880572721
         5            5.000000         3.819600654       298.141898789     -1268.208452171     -1264.384093915        13.960643817
         6            6.000000         3.801761391       296.749441254     -1268.214144964     -1264.406772852        13.918846626
         7            7.000000         3.800075395       296.617839517     -1268.218301565     -1264.411772304        13.292142630
         8            8.000000         3.785358464       295.469098023     -1268.170315460     -1264.377670619        13.268070549
         9            9.000000         3.896963661       304.180528499     -1268.321092696     -1264.416007908        12.663181644
        10           10.000000         3.726211175       290.852310436     -1268.099091341     -1264.363927001        12.665879063
        11           11.000000         3.665770178       286.134541386     -1268.043098606     -1264.367588263        12.670704082
        12           12.000000         3.804708150       296.979452826     -1268.231011545     -1264.415797645        12.641434763
        13           13.000000         3.742451541       292.119964843     -1268.138384649     -1264.384666251        12.686277840
        14           14.000000         3.761833300       293.632823051     -1268.199025859     -1264.425186590        12.659089550
        15           15.000000         3.694004608       288.338401782     -1268.130216855     -1264.423489715        12.666357607
        16           16.000000         3.647234609       284.687733129     -1268.117725359     -1264.457090587        13.336357992
        17           17.000000         3.844290989       300.069122090     -1268.363110468     -1264.504760155        12.674317472
        18           18.000000         3.763755654       293.782873924     -1268.236606268     -1264.458128269        12.633338593
        19           19.000000         3.680222832       287.262654577     -1268.152568360     -1264.456989741        12.648240712
        20           20.000000         3.740813269       291.992088208     -1268.244607568     -1264.487834975        12.640434727
        21           21.000000         3.711917372       289.736596520     -1268.208533971     -1264.480072934        13.265477188
        22           22.000000         3.830278326       298.975352820     -1268.368088048     -1264.520696731        13.325517863
        23           23.000000         3.760666474       293.541745577     -1268.300220659     -1264.521875081        13.270635068
        24           24.000000         3.625320636       282.977220932     -1268.098949300     -1264.455415817        13.326297086
        25           25.000000         3.790784537       295.892634382     -1268.363757625     -1264.554259121        13.887306336
        26           26.000000         3.796642919       296.349914946     -1268.329334385     -1264.513478657        13.233302020
        27           27.000000         3.770782818       294.331384689     -1268.300871046     -1264.510387518        13.905742176
        28           28.000000         3.748096405       292.560579025     -1268.258047698     -1264.489779566        13.295050684
        29           29.000000         3.629468198       283.300962126     -1268.111738279     -1264.461656295        13.261395145
        30           30.000000         3.795803889       296.284423803     -1268.339251421     -1264.522423141        12.640079878
        31           31.000000         3.815389887       297.813224097     -1268.366784526     -1264.529961868        12.639451414
        32           32.000000         3.676396810       286.964011402     -1268.166421402     -1264.468198651        12.655823406
        33           33.000000         3.747300163       292.498427747     -1268.277206571     -1264.507717769        12.670858305
        34           34.000000         3.727715723       290.969749056     -1268.264858456     -1264.514609262        12.661822669
        35           35.000000         3.798463561       296.492026567     -1268.333775452     -1264.512451272        12.672054462
        36           36.000000         3.823252474       298.426944428     -1268.394195885     -1264.547761047        12.632254019
        37           37.000000         3.634847878       283.720877217     -1268.134285513     -1264.475948900        12.664804019
        38           38.000000         3.736642064       291.666501548     -1268.238105617     -1264.477704826        12.628119498
        39           39.000000         3.821783631       298.312292753     -1268.340551542     -1264.494753227        12.661319960
        40           40.000000         3.774815247       294.646139023     -1268.322109531     -1264.523029385        12.659668550
        41           41.000000         3.813166948       297.639710925     -1268.409039670     -1264.571368887        13.277532492
        42           42.000000         3.706465801       289.311069894     -1268.254287147     -1264.523089659        13.340990428
        43           43.000000         3.782530904       295.248390639     -1268.337560150     -1264.530092518        13.248464435
        44           44.000000         3.892585013       303.838749679     -1268.502979173     -1264.585258107        12.645046934
        45           45.000000         3.723810041       290.664888073     -1268.268621156     -1264.519473924        12.629462708
        46           46.000000         3.749855334       292.697873614     -1268.291490511     -1264.516118734        12.658656206
        47           47.000000         3.794343225       296.170410516     -1268.343561318     -1264.523538187        12.669001229
        48           48.000000         3.813122812       297.636265804     -1268.337675210     -1264.498717571        12.633337136
        49           49.000000         3.906543255       304.928271121     -1268.471060948     -1264.538529430        12.683761619
        50           50.000000         3.739828627       291.915231259     -1268.260132422     -1264.494157009        12.327809792
        51           51.000000         3.748650851       292.603856766     -1268.246491591     -1264.471554195        12.655950177
        52           52.000000         3.890353893       303.664597911     -1268.424473180     -1264.507705309        12.628128462
        53           53.000000         3.809383820       297.344415910     -1268.313713097     -1264.477782595        12.649658184
        54           54.000000         3.828731567       298.854619360     -1268.356461878     -1264.501055824        12.656709805
        55           55.000000         3.781585544       295.174599867     -1268.313396459     -1264.505013198        11.998260040
        56           56.000000         3.797022799       296.379566809     -1268.343661305     -1264.519728320        12.609604571
        57           57.000000         3.972260352       310.057870230     -1268.578890213     -1264.579609255        12.666616812
        58           58.000000         3.837671199       299.552409227     -1268.396257993     -1264.531436530        12.614928816
        59           59.000000         3.772659617       294.477879699     -1268.337853463     -1264.537916080        12.613877479
        60           60.000000         3.857579553       301.106371296     -1268.477725166     -1264.592749875        12.644599319
        61           61.000000         3.839825744       299.720583969     -1268.397873456     -1264.530532190        12.631490186
        62           62.000000         3.933778071       307.054105861     -1268.533362986     -1264.571945779        12.602392692
        63           63.000000         3.829113065       298.884397423     -1268.405542845     -1264.548653446        12.623962950
        64           64.000000         3.728457985       291.027686938     -1268.265325313     -1264.508959466        12.629362188
        65           65.000000         3.899546888       304.382164237     -1268.512167273     -1264.584595337        11.981316898
        66           66.000000         3.845560423       300.168208784     -1268.429776548     -1264.556065853        12.629719406
        67           67.000000         3.783342675       295.311754059     -1268.392701598     -1264.581084453        12.644198347
        68           68.000000         3.766435265       293.992033059     -1268.401091141     -1264.606268593        12.634609990
        69           69.000000         3.714509018       289.938889433     -1268.302652100     -1264.559659283        12.611478273
        70           70.000000         3.901654878       304.546705034     -1268.527557593     -1264.597339891        12.646057874
        71           71.000000         3.880102419       302.864411159     -1268.460428798     -1264.551675817        12.037185121
        72           72.000000         3.734567050       291.504534718     -1268.273390249     -1264.510082049        12.005990088
        73           73.000000         3.815317145       297.807546193     -1268.403377574     -1264.559244882        11.994064130
        74           74.000000         3.800742620       296.669920282     -1268.361668721     -1264.532042984        12.610335380
        75           75.000000         3.853048331       300.752683210     -1268.420618774     -1264.538625877        12.659697063
        76           76.000000         3.842379407       299.919912089     -1268.426354777     -1264.554968284        12.664022911
        77           77.000000         3.699371729       288.757336572     -1268.235689707     -1264.507252621        12.037201006
        78           78.000000         3.861239136       301.392022875     -1268.470736772     -1264.580394527        12.621588208
        79           79.000000         3.920043853       305.982070822     -1268.585074262     -1264.635887111        12.641761243
        80           80.000000         3.827097835       298.727097080     -1268.432692283     -1264.576399243        12.638699830
        81           81.000000         3.809825427       297.378885885     -1268.460758758     -1264.621687944        12.654643066
        82           82.000000         3.706421905       289.307643575     -1268.290048016     -1264.554339632        12.650532868
        83           83.000000         3.829764442       298.935241180     -1268.412636634     -1264.553565715        12.634073764
        84           84.000000         3.913616088       305.480346636     -1268.512831581     -1264.569892010        12.655486196
        85           85.000000         3.750520026       292.749756702     -1268.295956660     -1264.516088318        12.654411934
        86           86.000000         3.799114006       296.542797603     -1268.390125559     -1264.561651712        12.022001881
        87           87.000000         3.829566401       298.919782917     -1268.418194567     -1264.559265856        12.054483645
        88           88.000000         3.825397458       298.594372881     -1268.397367574     -1264.542608937        11.996189471
        89           89.000000         3.870245049       302.094986456     -1268.485090921     -1264.585488229        12.010334246
        90           90.000000         3.698473460       288.687221495     -1268.262630703     -1264.534803081        12.035328094
        91           91.000000         3.750472454       292.746043434     -1268.301558768     -1264.521758468        12.025350582
        92           92.000000         3.910263404       305.218650237     -1268.516995200     -1264.577447142        12.016648248
        93           93.000000         3.846015828       300.203755778     -1268.401217780     -1264.525953541        12.644462716
        94           94.000000         3.874780496       302.449004284     -1268.438749651     -1264.534754251        12.647052914
        95           95.000000         3.811163050       297.483295101     -1268.359195398     -1264.518847119        12.641747911
        96           96.000000         3.792171413       296.000888100     -1268.288546199     -1264.467224473        12.692568988
        97           97.000000         3.902658735       304.625061900     -1268.448731504     -1264.516965189        12.646473277
        98           98.000000         3.765999243       293.957999012     -1268.297439779     -1264.502370256        12.623721465
        99           99.000000         3.764070460       293.807446348     -1268.323816377     -1264.530724543        12.642660759
       100          100.000000         3.874962110       302.463180281     -1268.458832672     -1264.554912356        12.660724580
       101          101.000000         3.861491874       301.411750583     -1268.421818264     -1264.531429557        12.643044479
       102          102.000000         3.926929111       306.519504955     -1268.526319721     -1264.570550490        12.683654547
       103          103.000000         3.794244417       296.162698026     -1268.372470003     -1264.549430440        12.633215494
       104          104.000000         3.742061596       292.089527324     -1268.296768767     -1264.525964045        12.633302715
       105          105.000000         3.893798132       303.933440632     -1268.477563004     -1264.555090243        12.695117243
       106          106.000000         3.815550312       297.825746195     -1268.364199482     -1264.520040078        12.655394789
       107          107.000000         3.795649495       296.272372465     -1268.333700953     -1264.509511872        12.026798598
       108          108.000000         3.814929133       297.777259571     -1268.385209158     -1264.541819282        12.671704713
       109          109.000000         3.780366711       295.079462849     -1268.313274974     -1264.504534098        12.650719721
       110          110.000000         3.922876651       306.203187042     -1268.534894769     -1264.583741067        12.638882816
       111          111.000000         3.835116462       299.352997263     -1268.429062817     -1264.565758013        12.686251447
       112          112.000000         3.705257983       289.216792759     -1268.308796155     -1264.575439672        12.672702067
       113          113.000000         3.835223745       299.361371332     -1268.469287893     -1264.606077601        12.665802423
       114          114.000000         3.817368397       297.967658245     -1268.411247302     -1264.566012686        12.702650700
       115          115.000000         3.852292628       300.693696250     -1268.445023498     -1264.564990701        12.667229712
       116          116.000000         3.841868151       299.880005581     -1268.444816006     -1264.575335128        12.708973631
       117          117.000000         3.738375490       291.801805500     -1268.300272180     -1264.534413732        12.068872970
       118          118.000000         3.879651470       302.829211913     -1268.499964493     -1264.592977163        12.040594421
       119          119.000000         3.854999270       300.904965307     -1268.447790251     -1264.565603327        12.023560647
       120          120.000000         3.751535215       292.828998075     -1268.330312286     -1264.551736775        12.656715099
       121          121.000000         3.809903582       297.384986301     -1268.449066000     -1264.612284899        12.726846073
       122          122.000000         3.791918013       295.981108718     -1268.340892732     -1264.522271703        12.678052742
       123          123.000000         3.912583164       305.399720952     -1268.483561085     -1264.544461219        12.732118573
       124          124.000000         3.944059151       307.856603598     -1268.549896096     -1264.579501047        12.676886067
       125          125.000000         3.795442440       296.256210658     -1268.398335310     -1264.576721866        12.671007447
       126          126.000000         3.883928447       303.163054742     -1268.523850842     -1264.613921119        12.706709389
       127          127.000000         3.907909366       305.034904025     -1268.548658691     -1264.614916232        12.669216704
       128          128.000000         3.886924707       303.396930151     -1268.481548943     -1264.568949944        12.667915829
       129          129.000000         3.920964444       306.053928262     -1268.578995436     -1264.632507898        13.334740549
       130          130.000000         3.834320761       299.290888229     -1268.471314825     -1264.611610815        12.685388830
       131          131.000000         3.952760705       308.535810164     -1268.639268561     -1264.661263836        13.317933504
       132          132.000000         4.031697758       314.697303152     -1268.702382822     -1264.645564216        12.670080055
       133          133.000000         3.897649525       304.234064104     -1268.538170763     -1264.615491237        12.674426358
       134          134.000000         3.902008822       304.574332447     -1268.553693426     -1264.626730675        12.737823192
       135          135.000000         3.866543205       301.806036118     -1268.498713427     -1264.607282398        12.669808086
       136          136.000000         3.911433070       305.309949471     -1268.518177410     -1264.581917022        12.705949172
       137          137.000000         4.003822010       312.521439989     -1268.619944068     -1264.591341965        12.694165751
       138          138.000000         3.844623886       300.095106666     -1268.391273875     -1264.521891103        12.653431337
       139          139.000000         3.870606784       302.123221913     -1268.414412781     -1264.519063283        12.703206833
       140          140.000000         3.942479079       307.733269844     -1268.502274154     -1264.535062256        12.086950973
       141          141.000000         3.862121080       301.460863759     -1268.434461547     -1264.547601370        12.683486935
       142          142.000000         3.891353961       303.742659002     -1268.480750089     -1264.564644039        12.669971086
       143          143.000000         3.780847418       295.116984815     -1268.354130885     -1264.548512143        12.681189965
       144          144.000000         3.790051842       295.835443296     -1268.374730491     -1264.559897449        12.688585162
       145          145.000000         3.952094967       308.483845429     -1268.578155311     -1264.601275816        12.699068807
       146          146.000000         3.854493474       300.865485034     -1268.405142869     -1264.525845901        12.715825822
       147          147.000000         3.835375323       299.373202891     -1268.364273931     -1264.504071806        12.681399416
       148          148.000000         3.857590522       301.107227502     -1268.437913866     -1264.555473362        12.703462385
       149          149.000000         3.815108987       297.791298257     -1268.427128369     -1264.587144610        12.689190369
       150          150.000000         3.915677010       305.641213485     -1268.590656274     -1264.650081149        13.369774271
       151          151.000000         3.810356870       297.420368104     -1268.408592194     -1264.573304016        12.693163898
       152          152.000000         3.750070961       292.714704552     -1268.331216084     -1264.556186087        12.732633591
       153          153.000000         3.891909992       303.786060398     -1268.519265044     -1264.602381164        12.697810479
       154          154.000000         3.866859117       301.830694922     -1268.449617855     -1264.557763845        12.699368749
       155          155.000000         3.872700881       302.286678294     -1268.488727950     -1264.591005246        12.694708832
       156          156.000000         3.819012750       298.096009516     -1268.437537372     -1264.593471083        12.733494148
       157          157.000000         3.754625082       293.070180044     -1268.278518855     -1264.498813458        12.697504096
       158          158.000000         3.908858858       305.109017300     -1268.485678939     -1264.551724556        12.706281956
       159          159.000000         3.873652031       302.360921064     -1268.452018560     -1264.553246722        12.706689786
       160          160.000000         3.789810248       295.816585509     -1268.362193312     -1264.547233960        12.706628475
       161          161.000000         3.859490253       301.255512483     -1268.406508955     -1264.521846690        12.724492107
       162          162.000000         3.849549885       300.479609290     -1268.340033491     -1264.465286797        12.693539497
       163          163.000000         3.927041745       306.528296718     -1268.468218819     -1264.515951236        13.310742814
       164          164.000000         3.882789778       303.074175046     -1268.410314257     -1264.502254896        13.346141972
       165          165.000000         3.749490648       292.669407761     -1268.225112020     -1264.450302425        13.970248014
       166          166.000000         3.871346029       302.180924314     -1268.395324677     -1264.498621860        14.003133718
       167          167.000000         3.901303187       304.519253552     -1268.432233067     -1264.505530333        14.614843726
       168          168.000000         3.891347388       303.742145906     -1268.421404146     -1264.504602636        14.016261969
       169          169.000000         3.909646796       305.170520453     -1268.505514590     -1264.570347343        14.629972335
       170          170.000000         3.813452164       297.661973613     -1268.368089039     -1264.529038865        14.011697207
       171          171.000000         3.912228198       305.372013767     -1268.537696738     -1264.599792439        14.635658979
       172          172.000000         3.931940301       306.910657266     -1268.505896487     -1264.548187028        13.364999585
       173          173.000000         3.796698371       296.354243312     -1268.331199114     -1264.508623966        14.011361472
       174          174.000000         3.846403483       300.234014497     -1268.424588720     -1264.552204528        13.397483863
       175          175.000000         3.848992619       300.436111484     -1268.404732492     -1264.529652947        13.414485894
       176          176.000000         3.902277142       304.595276393     -1268.509947665     -1264.581471961        14.636618305
       177          177.000000         3.954208440       308.648814189     -1268.586661530     -1264.606126922        14.062282164
       178          178.000000         3.787315722       295.621873365     -1268.389432900     -1264.575645756        14.712267593
       179          179.000000         3.836292255       299.444774717     -1268.458646420     -1264.595742533        15.325615086
       180          180.000000         3.921682013       306.109938668     -1268.469927927     -1264.521489187        13.403638199
       181          181.000000         3.870122845       302.085447738     -1268.390374338     -1264.493333588        14.018445190
       182          182.000000         3.902198910       304.589169867     -1268.439526874     -1264.510238374        12.751375735
       183          183.000000         3.826981664       298.718029301     -1268.275952010     -1264.421697358        12.722412363
       184          184.000000         3.873476453       302.347216224     -1268.354905426     -1264.453969780        12.744559281
       185          185.000000         3.993349074       311.703966804     -1268.508608687     -1264.487598193        12.708861839
       186          186.000000         3.888923610       303.552956015     -1268.373635829     -1264.456819025        12.717003636
       187          187.000000         3.873350039       302.337348883     -1268.389652439     -1264.488164751        12.749578543
       188          188.000000         3.905138171       304.818596179     -1268.415905227     -1264.482372219        12.682257593
       189          189.000000         3.910653609       305.249108026     -1268.391471815     -1264.452147847        12.740086902
       190          190.000000         3.990465714       311.478903924     -1268.506259598     -1264.486823573        12.741336051
       191          191.000000         3.886294796       303.347761923     -1268.371806342     -1264.456210837        12.764429167
       192          192.000000         3.862511978       301.491375582     -1268.346730920     -1264.454576010        12.069860816
       193          193.000000         3.957610064       308.914330586     -1268.447145579     -1264.459533501        12.788352050
       194          194.000000         3.906851290       304.952315080     -1268.382244819     -1264.445003757        12.689294022
       195          195.000000         3.931754676       306.896168206     -1268.435350627     -1264.472797264        12.765562832
       196          196.000000         3.895247345       304.046560082     -1268.396962403     -1264.470483806        12.764843773
       197          197.000000         3.849409319       300.468637304     -1268.366638468     -1264.485551534        12.710461337
       198          198.000000         3.969722063       309.859742149     -1268.522981609     -1264.521117308        12.737533621
       199          199.000000         3.909476680       305.157241912     -1268.445107580     -1264.502990529        12.764195777
       200          200.000000         3.862961293       301.526447201     -1268.394003994     -1264.497888096        12.717737637
       201          201.000000         3.913841118       305.497911509     -1268.478384351     -1264.530858261        12.787034985
       202          202.000000         3.864368787       301.636310246     -1268.386637882     -1264.488032400        12.724077456
       203          203.000000         3.914309367       305.534461060     -1268.460786226     -1264.511671743        12.774343312
       204          204.000000         3.865955114       301.760132199     -1268.412090827     -1264.510740174        12.740135171
       205          205.000000         3.791029384       295.911746133     -1268.318263478     -1264.491243505        12.722008966
       206          206.000000         3.905580323       304.853108748     -1268.451464788     -1264.509291216        12.718169391
       207          207.000000         3.873746432       302.368289616     -1268.396450976     -1264.485482936        12.741879355
       208          208.000000         3.848929625       300.431194415     -1268.377850161     -1264.491058335        12.719145894
       209          209.000000         3.873676163       302.362804710     -1268.372683445     -1264.460491472        12.113240294
       210          210.000000         3.820444454       298.207762282     -1268.292950981     -1264.433324739        12.702700995
       211          211.000000         3.901878161       304.564133572     -1268.407127680     -1264.465389685        12.780335937
       212          212.000000         3.879076368       302.784321908     -1268.431371852     -1264.511732332        12.701404341
       213          213.000000         3.793112032       296.074308822     -1268.338442461     -1264.504057270        12.706350267
       214          214.000000         3.858006441       301.139692352     -1268.430537177     -1264.530544767        12.755567767
       215          215.000000         3.838072557       299.583737585     -1268.377033830     -1264.496246527        12.717118047
       216          216.000000         3.862764528       301.511088597     -1268.385914041     -1264.479694439        12.729589667
       217          217.000000         3.884819763       303.232627103     -1268.429251240     -1264.500216608        12.782216135
       218          218.000000         3.798632855       296.505240952     -1268.353606354     -1264.509988464        12.715083022
       219          219.000000         3.871472983       302.190833755     -1268.438880325     -1264.521647288        12.704223700
       220          220.000000         3.882954682       303.087046711     -1268.448650362     -1264.519136783        12.738846671
       221          221.000000         3.824524454       298.526229849     -1268.409664646     -1264.537769931        12.760900561
       222          222.000000         3.874293322       302.410977525     -1268.491641570     -1264.569157350        12.735428948
       223          223.000000         3.844044389       300.049873583     -1268.402223694     -1264.509150295        12.705984335
       224          224.000000         3.887999109       303.480793422     -1268.457061125     -1264.519180109        13.395807441
       225          225.000000         3.912200073       305.369818434     -1268.468006673     -1264.505044341        12.706537448
       226          226.000000         3.791974786       295.985540225     -1268.346847963     -1264.503219953        12.762616206
       227          227.000000         3.822715616       298.385039582     -1268.403171421     -1264.527917172        12.712381598