#     Step Nr.          Time[fs]        Kin.[a.u.]          Temp[K]            Pot.[a.u.]        Cons Qty[a.u.]        UsedTime[s]
         0            0.000000         3.844830508       300.000000000     -1659.733431054     -1655.888125523         0.000000000
         1            1.000000         4.067219977       317.352348943     -1660.246424972     -1656.177844644        64.669133626
         2            2.000000         3.705416300       289.121948946     -1659.842132447     -1656.134456078        15.963681284
         3            3.000000         3.729924975       291.034283596     -1659.835149206     -1656.102120987        16.744867677
         4            4.000000         4.126166893       321.951790931     -1660.314094574     -1656.183947246        16.891780455
         5            5.000000         3.868440958       301.842248912     -1659.889743025     -1656.016387909        16.226453310
         6            6.000000         3.778073005       294.791122544     -1659.793418415     -1656.009529033        16.215517381
         7            7.000000         3.919644618       305.837509069     -1659.955390354     -1656.029028644        16.228670441
         8            8.000000         3.717476970       290.063005011     -1659.605066004     -1655.879971948        15.457146266
         9            9.000000         4.119225749       321.410195303     -1660.145091359     -1656.017335417        15.533287467
        10           10.000000         3.741606082       291.945723569     -1659.600572694     -1655.849484731        16.221211592
        11           11.000000         3.573730796       278.846944383     -1659.401559293     -1655.817475245        15.598735461
        12           12.000000         3.921688566       305.996991845     -1659.891550576     -1655.958656676        16.235376926
        13           13.000000         3.856874314       300.939740210     -1659.659582367     -1655.790613168        14.820510142
        14           14.000000         3.908838329       304.994328416     -1659.793649526     -1655.871822863        15.500515973
        15           15.000000         3.924847780       306.243495355     -1659.839389674     -1655.900640223        14.752767747
        16           16.000000         3.602637770       281.102464370     -1659.388276676     -1655.770852109        14.697693516
        17           17.000000         4.116537543       321.200443126     -1660.082001925     -1655.949797751        15.561654201
        18           18.000000         3.921092783       305.950504817     -1659.770349853     -1655.832636397        15.443044089
        19           19.000000         3.731949487       291.192249860     -1659.494299583     -1655.744805555        14.895344626
        20           20.000000         3.915056709       305.479529004     -1659.792390815     -1655.858879774        14.788792152
        21           21.000000         3.838877837       299.535531823     -1659.574828987     -1655.716566794        15.441078670
        22           22.000000         4.083964930       318.658904784     -1659.935909845     -1655.831603164        14.729094738
        23           23.000000         4.112083781       320.852930060     -1659.894168218     -1655.760707396        14.700345626
        24           24.000000         3.617141315       282.234130271     -1659.395852371     -1655.756317419        14.631437777
        25           25.000000         4.014949284       313.273831637     -1660.014792176     -1655.976468727        17.485791201
        26           26.000000         3.958676544       308.883047172     -1659.862140544     -1655.879042172        16.044997435
        27           27.000000         3.928617149       306.537607354     -1659.799832151     -1655.845733125        16.191531120
        28           28.000000         3.999415017       312.061741716     -1659.966199033     -1655.940217051        16.215620745
        29           29.000000         3.733071509       291.279797694     -1659.537005846     -1655.776286966        17.622010143
        30           30.000000         3.985720457       310.993198383     -1659.881249587     -1655.866813127        16.146924522
        31           31.000000         4.173029143       325.608304479     -1660.102629339     -1655.899726825        17.637033625
        32           32.000000         3.684229695       287.468825001     -1659.537814309     -1655.822548059        18.315621035
        33           33.000000         3.893876448       303.826900011     -1659.760438481     -1655.834418644        87.141241642
        34           34.000000         3.771623366       294.287877563     -1659.604296785     -1655.799409670        16.216274012
        35           35.000000         3.919018711       305.788671529     -1659.780114167     -1655.826716506        15.357306674
        36           36.000000         4.121744264       321.606707140     -1660.032107241     -1655.874801914        16.241371443
        37           37.000000         3.726094921       290.735436551     -1659.531950408     -1655.769100980        16.132882258
        38           38.000000         3.836695035       299.365214654     -1659.703851095     -1655.829263450        17.607952923
        39           39.000000         4.088678420       319.026683559     -1660.012197781     -1655.884433250        16.887874695
        40           40.000000         3.792130960       295.888020444     -1659.616469974     -1655.784032038        16.200898170
        41           41.000000         3.988520018       311.211639355     -1659.941698157     -1655.911665405        16.222345047
        42           42.000000         3.692203598       288.091003520     -1659.466765244     -1655.731843994        16.194515668
        43           43.000000         3.810808349       297.345358164     -1659.607632209     -1655.752950736        17.568721509
        44           44.000000         4.148947405       323.729282408     -1660.114918898     -1655.920875560        16.894516673
        45           45.000000         3.810965040       297.357584276     -1659.653420580     -1655.796094037        16.842385229
        46           46.000000         3.791281486       295.821738673     -1659.696785928     -1655.857935042        16.208962696
        47           47.000000         3.942852768       307.648367802     -1659.826217061     -1655.834574908        17.539095094
        48           48.000000         3.778807539       294.848435898     -1659.556154819     -1655.727330674        16.155055886
        49           49.000000         4.116581514       321.203874025     -1660.082674923     -1655.914825186        16.166377125
        50           50.000000         3.747838908       292.432051293     -1659.684261338     -1655.883873276        16.819755873
        51           51.000000         3.735973235       291.506210239     -1659.625380048     -1655.835651697        16.207025560
        52           52.000000         4.094121102       319.451358925     -1660.093259366     -1655.944137208        16.885346545
        53           53.000000         3.903895587       304.608661797     -1659.736296538     -1655.776093391        16.155059246
        54           54.000000         3.894655828       303.887712609     -1659.742429519     -1655.790179073        15.434235968
        55           55.000000         3.868272673       301.829118227     -1659.681732535     -1655.754578218        15.448462749
        56           56.000000         3.649531513       284.761435272     -1659.362002696     -1655.652346960        16.224618590
        57           57.000000         4.143123965       323.274897753     -1659.963339979     -1655.758829457        14.726328278
        58           58.000000         3.871949602       302.116017367     -1659.602236838     -1655.667564827        15.450595064
        59           59.000000         3.763203343       293.630889715     -1659.425899457     -1655.598695952        14.703698181
        60           60.000000         3.990276784       311.348714213     -1659.757929112     -1655.702367319        14.786089331
        61           61.000000         3.889171014       303.459749872     -1659.506966523     -1655.551188409        14.680213701
        62           62.000000         4.043949478       315.536625327     -1659.772707255     -1655.660808944        14.716336941
        63           63.000000         3.971453390       309.879984158     -1659.693609463     -1655.652821770        14.783512052
        64           64.000000         3.592442813       280.306984030     -1659.207195456     -1655.544098871        15.299762724
        65           65.000000         4.086978183       318.894019441     -1660.022315238     -1655.863378440        14.818780290
        66           66.000000         3.982819199       310.766822414     -1659.779108561     -1655.722930804        14.912308475
        67           67.000000         3.953017521       308.441491414     -1659.808781448     -1655.781004804        15.470721330
        68           68.000000         3.983334730       310.807047617     -1659.824009216     -1655.764497763        15.442163549
        69           69.000000         3.777896179       294.777325335     -1659.456657236     -1655.601183198        14.775491672
        70           70.000000         4.061438969       316.901275115     -1659.846087537     -1655.705664108        14.700928489
        71           71.000000         4.136525783       322.760062448     -1659.889966265     -1655.672952627        14.038689034
        72           72.000000         3.703895451       289.003281910     -1659.322840313     -1655.536981234        14.748486435
        73           73.000000         4.030125571       314.457989449     -1659.780773328     -1655.667246234        14.027250638
        74           74.000000         3.926689803       306.387222639     -1659.600744156     -1655.589155509        13.991407277
        75           75.000000         4.066551725       317.300207377     -1659.771544916     -1655.618576374        14.767237997
        76           76.000000         4.113397354       320.955424053     -1659.896238734     -1655.694836924        14.722633883
        77           77.000000         3.754916856       292.984321272     -1659.384096957     -1655.539614743        14.776654083
        78           78.000000         3.963362462       309.248674575     -1659.636454118     -1655.582009897        15.435171306
        79           79.000000         4.167447211       325.172763928     -1659.889109250     -1655.628969516        15.452457970
        80           80.000000         3.856953908       300.945950655     -1659.521203051     -1655.569925904        16.195554858
        81           81.000000         4.063505161       317.062493605     -1659.846786985     -1655.687345799        16.896794487
        82           82.000000         3.806461294       297.006171204     -1659.481141093     -1655.577121879        15.478420701
        83           83.000000         3.993689407       311.614990461     -1659.695053734     -1655.602209183        15.439889327
        84           84.000000         4.151344929       323.916353700     -1659.927682034     -1655.675498091        16.171356468
        85           85.000000         3.761926865       293.531290142     -1659.385383404     -1655.520948080        15.467269527
        86           86.000000         3.810036725       297.285150802     -1659.478067676     -1655.563945741        15.452437149
        87           87.000000         3.973273288       310.021985071     -1659.761476291     -1655.682517033        15.403574027
        88           88.000000         3.837354919       299.416703332     -1659.457895535     -1655.513246102        16.858649138
        89           89.000000         4.136673513       322.771589313     -1659.881710113     -1655.636107254        16.872666620
        90           90.000000         3.761038595       293.461981269     -1659.397892841     -1655.526280935        16.196539031
        91           91.000000         3.860843205       301.249420197     -1659.509651920     -1655.536671321        15.441797970
        92           92.000000         4.122400313       321.657896516     -1659.971812150     -1655.735647202        16.171039252
        93           93.000000         3.896512676       304.032596545     -1659.617851276     -1655.605913917        16.833839351
        94           94.000000         3.881158830       302.834584349     -1659.695594913     -1655.697404949        16.871005071
        95           95.000000         3.896967249       304.068065494     -1659.767892944     -1655.752299841        16.237212090
        96           96.000000         3.780728861       294.998350623     -1659.512087210     -1655.611171239        16.893341633
        97           97.000000         4.216026071       328.963219186     -1660.102857167     -1655.765037935        16.967480808
        98           98.000000         3.843487560       299.895213962     -1659.770101449     -1655.803167766        21.916205106
        99           99.000000         3.820862967       298.129888366     -1659.720153329     -1655.774285281        20.509495176
       100          100.000000         3.980878879       310.615425360     -1659.874813692     -1655.767365334        19.142281378
       101          101.000000         3.885780801       303.195222195     -1659.582327900     -1655.568401566        19.097545784
       102          102.000000         3.973788294       310.062169368     -1659.764552244     -1655.661053907        16.901291735
       103          103.000000         3.870794574       302.025894162     -1659.481021631     -1655.478957517        16.188759137
       104          104.000000         3.622482914       282.650918375     -1659.132517119     -1655.377295961        15.487594031
       105          105.000000         4.079031133       318.273936205     -1659.647040876     -1655.433812782        15.433481297
       106          106.000000         3.848509467       300.287057521     -1659.270935328     -1655.286720484        15.544703519
       107          107.000000         3.805502879       296.931389142     -1659.303324526     -1655.360678031        14.730123140
       108          108.000000         3.840302334       299.646680856     -1659.429474801     -1655.450621629        15.478847025
       109          109.000000         3.730887305       291.109371197     -1659.258272845     -1655.387468698        15.457574997
       110          110.000000         4.000513069       312.147419269     -1659.684172691     -1655.542385001        16.282492252
       111          111.000000         3.987080361       311.099307421     -1659.603265521     -1655.473506851        15.474950841
       112          112.000000         3.667760017       286.183747988     -1659.143826659     -1655.332045750        15.508839732
       113          113.000000         4.033836390       314.747532954     -1659.693871317     -1655.514705714        15.437652897
       114          114.000000         3.890456927       303.560085594     -1659.491642164     -1655.454507976        16.211739706
       115          115.000000         3.982930053       310.775471979     -1659.378628145     -1655.247690379        15.443663616
       116          116.000000         3.947660013       308.023462011     -1659.321804943     -1655.224796554        15.627978198
       117          117.000000         3.701494462       288.815940332     -1658.881673216     -1655.029545883        14.731271992
       118          118.000000         3.971266875       309.865430993     -1659.239358481     -1655.116210297        15.498063698
       119          119.000000         4.063783687       317.084226053     -1659.323659491     -1655.106689787        15.505066553
       120          120.000000         3.775341623       294.578001411     -1658.965523605     -1655.035712603        14.830713952
       121          121.000000         3.978587382       310.436627064     -1659.400328190     -1655.266028124        14.782241704
       122          122.000000         3.764202313       293.708836198     -1659.085403377     -1655.164254318        15.455022899
       123          123.000000         3.966188852       309.469208878     -1659.330256721     -1655.205918936        14.795279225
       124          124.000000         4.024486610       314.017999072     -1659.439664662     -1655.255789318        14.001896447
       125          125.000000         3.688215307       287.779809760     -1658.979203370     -1655.130400176        13.984463522
       126          126.000000         3.831116736       298.929957581     -1659.202364677     -1655.209533308        13.995337633
       127          127.000000         3.949053522       308.132193124     -1659.305180340     -1655.193272773        14.016782066
       128          128.000000         3.803672815       296.788595003     -1659.159408136     -1655.191754254        13.957216075
       129          129.000000         3.988361090       311.199238638     -1659.441715917     -1655.288263903        13.960112840
       130          130.000000         3.653997298       285.109886371     -1659.034445999     -1655.214275378        14.707121078
       131          131.000000         3.840501836       299.662247329     -1659.275204828     -1655.267514481        14.136266014
       132          132.000000         4.009689463       312.863424369     -1659.457157338     -1655.279238557        14.704535900
       133          133.000000         3.766722100       293.905447242     -1659.082872988     -1655.146888664        14.072910435
       134          134.000000         3.833393592       299.107613468     -1659.229148326     -1655.225511412        14.748105040
       135          135.000000         3.855563629       300.837471586     -1659.196972997     -1655.170196939        14.060255652
       136          136.000000         3.814492432       297.632815567     -1659.131056937     -1655.144404385        13.996574512
       137          137.000000         4.131815551       322.392537851     -1659.517378152     -1655.212437524        13.259054087
       138          138.000000         3.765134553       293.781575940     -1659.006735561     -1655.067495526        13.997520559
       139          139.000000         3.832693687       299.053002070     -1659.055332534     -1655.047614245        14.006985487
       140          140.000000         4.023634620       313.951520947     -1659.350523413     -1655.150932223        13.953548774
       141          141.000000         3.934326997       306.983128785     -1659.122746573     -1655.011508528        13.264433820
       142          142.000000         4.009502152       312.848809073     -1659.244813748     -1655.057444347        13.941142403
       143          143.000000         3.880225461       302.761756572     -1659.065082142     -1655.006030524        13.949252913
       144          144.000000         3.774353612       294.500910027     -1659.089614851     -1655.135515723        13.899139361
       145          145.000000         4.180698626       326.206730080     -1659.669768539     -1655.308389172        14.660090383
       146          146.000000         3.926514055       306.373509537     -1659.288433844     -1655.180252200        13.922444617
       147          147.000000         3.949919229       308.199741501     -1659.367398040     -1655.234847617        14.036950780
       148          148.000000         3.958649089       308.880904935     -1659.470983880     -1655.328734015        14.728627663
       149          149.000000         3.879051764       302.670176682     -1659.332424076     -1655.268808675        14.706394870
       150          150.000000         4.070004287       317.569599899     -1659.644998790     -1655.389459323        14.763452977
       151          151.000000         3.970996228       309.844313244     -1659.506387844     -1655.348853622        14.721664483
       152          152.000000         3.730863610       291.107522330     -1659.188625899     -1655.270260600        14.692728423
       153          153.000000         4.041757369       315.365581942     -1659.608592436     -1655.378388684        14.763200428
       154          154.000000         3.858383858       301.057525158     -1659.242636037     -1655.194836266        14.032893287
       155          155.000000         3.973683908       310.054024414     -1659.464627454     -1655.300574365        14.768618392
       156          156.000000         3.931933078       306.796338838     -1659.459622702     -1655.336354026        14.720438518
       157          157.000000         3.769490942       294.121491229     -1659.001316953     -1655.039552170        13.957096795
       158          158.000000         3.986568120       311.059338887     -1659.322849779     -1655.143086143        13.913422462
       159          159.000000         3.944851648       307.804334114     -1659.216220120     -1655.077225319        13.947536875
       160          160.000000         3.720727811       290.316657852     -1659.065958078     -1655.150172582        13.992027273
       161          161.000000         3.953440913       308.474527351     -1659.395053602     -1655.245669530        14.030204119
       162          162.000000         3.786242872       295.428591504     -1659.113210492     -1655.130135552        13.972296728
       163          163.000000         3.982297403       310.726108287     -1659.423590298     -1655.243587204        14.094229875
       164          164.000000         3.964007576       309.299010737     -1659.386311053     -1655.223697170        13.960525636
       165          165.000000         3.757740993       293.204679778     -1659.098585886     -1655.141359586        13.266478535
       166          166.000000         3.958353332       308.857827916     -1659.333839253     -1655.175144798        13.916086309
       167          167.000000         4.029088984       314.377107838     -1659.355150063     -1655.124828998        13.898105027
       168          168.000000         3.911799814       305.225403766     -1659.121992684     -1655.008057179        13.947322907
       169          169.000000         4.087801352       318.958248757     -1659.513651363     -1655.222797755        13.898664765
       170          170.000000         3.845440486       300.047594637     -1659.064288658     -1655.014863185        14.020125819
       171          171.000000         4.064971829       317.176933060     -1659.341665492     -1655.071781863        14.001261357
       172          172.000000         4.119790432       321.454255772     -1659.429454517     -1655.103766721        13.975185903
       173          173.000000         3.908880123       304.997589459     -1659.141713428     -1655.025934851        13.201475997
       174          174.000000         4.002627663       312.312414404     -1659.313081900     -1655.102564029        13.161704473
       175          175.000000         4.017185997       313.448355255     -1659.290722715     -1655.064626420        13.165734122
       176          176.000000         3.946920053       307.965725251     -1659.218922949     -1655.062062206        13.245481629
       177          177.000000         4.114549388       321.045313635     -1659.445575593     -1655.120031065        13.867244083
       178          178.000000         3.789900625       295.713994444     -1658.938376289     -1654.936420173        13.874476388
       179          179.000000         3.920830261       305.930021016     -1659.100649195     -1654.966744394        13.903245077
       180          180.000000         3.987770276       311.153139309     -1659.263031859     -1655.061143570        13.858327489
       181          181.000000         3.843007895       299.857787197     -1659.027736531     -1654.969569273        13.221792592
       182          182.000000         3.870370320       301.992790988     -1659.103195079     -1655.016650884        13.868014472
       183          183.000000         3.809216184       297.221126610     -1659.000236379     -1654.973848087        13.914766835
       184          184.000000         3.802211135       296.674544700     -1659.008447727     -1654.988095106        13.838456661
       185          185.000000         4.083633601       318.633052238     -1659.370160460     -1655.067396649        13.898246134
       186          186.000000         3.790484567       295.759557598     -1659.008721616     -1654.998099683        13.897633128
       187          187.000000         3.850286264       300.425695439     -1659.162306954     -1655.090921718        13.868412314
       188          188.000000         3.887010884       303.291201689     -1659.244552597     -1655.135481899        13.915483208
       189          189.000000         3.868871358       301.875831719     -1659.201696394     -1655.109808141        13.904409843
       190          190.000000         3.997016955       311.874628521     -1659.417758923     -1655.196758899        13.895725388
       191          191.000000         3.889628512       303.495446960     -1659.217419810     -1655.102827471        13.877220429
       192          192.000000         3.793997777       296.033682298     -1659.161588260     -1655.141674526        13.882959025
       193          193.000000         4.096246230       319.617175909     -1659.549350274     -1655.226223264        14.655656237
       194          194.000000         3.902853512       304.527352027     -1659.345717122     -1655.214978318        14.622817639
       195          195.000000         3.978694777       310.445006719     -1659.448526070     -1655.240950064        15.439647293
       196          196.000000         3.893041942       303.761786117     -1659.368155309     -1655.245226869        14.727746332
       197          197.000000         3.879294403       302.689109047     -1659.417781117     -1655.307608494        16.151959235
       198          198.000000         4.058740506       316.690722544     -1659.664477621     -1655.373846376        15.404362269
       199          199.000000         4.010011619       312.888561167     -1659.564247639     -1655.321290041        16.842169993
       200          200.000000         3.831528350       298.962074574     -1659.266883313     -1655.201365604        14.723097891
       201          201.000000         4.064598832       317.147829248     -1659.607959234     -1655.308325032        18.038931750
       202          202.000000         3.921262275       305.963729716     -1659.427082337     -1655.269703732        15.404716119
       203          203.000000         4.074066397       317.886553490     -1659.466715063     -1655.155439088        14.717420669
       204          204.000000         3.954018408       308.519587509     -1659.343633605     -1655.151280232        14.665597957
       205          205.000000         3.840092644       299.630319425     -1659.163867120     -1655.084337199        14.684343835
       206          206.000000         4.012037187       313.046609840     -1659.454492498     -1655.201913794        14.654511046
       207          207.000000         4.048813703       315.916165439     -1659.383824032     -1655.093316594        13.961662354
       208          208.000000         3.924705299       306.232378026     -1659.290130375     -1655.122566492        13.912972238
       209          209.000000         4.033601465       314.729202449     -1659.511371019     -1655.233738643        14.618534619
       210          210.000000         3.833330981       299.102728142     -1659.249190376     -1655.170651878        13.899452409
       211          211.000000         4.043518633       315.503007817     -1659.440473391     -1655.150573793        13.874647833
       212          212.000000         4.003643992       312.391715327     -1659.407295725     -1655.156050120        13.946609898
       213          213.000000         3.845904407       300.083792894     -1659.098281947     -1655.003568801        13.914045250
       214          214.000000         3.931590236       306.769587927     -1659.257698802     -1655.076110214        13.844887989
       215          215.000000         3.966683128       309.507775677     -1659.232195195     -1655.014301984        13.902691685
       216          216.000000         3.932609515       306.849119084     -1659.137954847     -1654.952913033        13.880948722
       217          217.000000         4.032368543       314.633001468     -1659.259401784     -1654.973359887        13.874374678
       218          218.000000         3.763006690       293.615545471     -1658.940358646     -1654.922448179        13.897756835
       219          219.000000         3.931408952       306.755442928     -1659.177968748     -1654.990459624        13.857224658
       220          220.000000         3.961721883       309.120665384     -1659.253548105     -1655.034497183        13.958971066
       221          221.000000         3.877904766       302.580680044     -1659.083720081     -1654.947257482        13.884300373
       222          222.000000         3.909493978       305.045486661     -1659.105907612     -1654.936638095        13.882700989
       223          223.000000         3.859363219       301.133941587     -1659.039992801     -1654.919640638        13.198983584
       224          224.000000         3.855506345       300.833001895     -1659.050952596     -1654.933260480        13.212168531
       225          225.000000         4.021923631       313.818017884     -1659.274040621     -1654.988714905        13.174203180
       226          226.000000         3.772613705       294.365150571     -1659.033987171     -1654.996754710        13.247812429
       227          227.000000         3.872473025       302.156858425     -1659.163473199     -1655.025205687        13.214796137