#     Step Nr.          Time[fs]        Kin.[a.u.]          Temp[K]            Pot.[a.u.]        Cons Qty[a.u.]        UsedTime[s]
         0            0.000000         3.844830508       300.000000000     -1262.668284995     -1258.822979465         0.000000000
         1            1.000000         4.145509557       323.461037962     -1263.067179204     -1258.920298369        50.423343716
         2            2.000000         3.916662249       305.604804246     -1262.759824824     -1258.840838335        12.796943489
         3            3.000000         3.798600876       296.392847611     -1262.631255546     -1258.829400981        12.255754558
         4            4.000000         3.940506852       307.465323417     -1262.823775484     -1258.879085319        12.216874253
         5            5.000000         3.919097142       305.794791243     -1262.885907806     -1258.961667890        12.853501394
         6            6.000000         4.085477929       318.776959382     -1263.121743695     -1259.030125304        13.526137298
         7            7.000000         3.894821506       303.900639918     -1262.883437870     -1258.981440941        13.558758089
         8            8.000000         3.736676774       291.561105138     -1262.647271066     -1258.902418281        12.873256352
         9            9.000000         4.061620911       316.915471514     -1263.105652098     -1259.034842425        12.905968646
        10           10.000000         3.986710947       311.070483200     -1262.990477968     -1258.993498478        12.901497461
        11           11.000000         3.911218541       305.180048870     -1262.899097581     -1258.976521933        12.837378168
        12           12.000000         3.900541747       304.346972295     -1262.897008779     -1258.984018323        12.861068292
        13           13.000000         3.801128462       296.590067143     -1262.721233337     -1258.906571336        12.927524095
        14           14.000000         4.131560238       322.372616590     -1263.146594045     -1259.000380966        12.266428173
        15           15.000000         4.051191004       316.101658743     -1263.104968220     -1259.037920589        13.521336950
        16           16.000000         3.785651876       295.382477907     -1262.766100725     -1258.963402572        13.530895373
        17           17.000000         3.987166288       311.106012050     -1263.058957114     -1259.053565296        13.561148556
        18           18.000000         3.961963285       309.139501176     -1262.975472561     -1258.994055069        13.690155452
        19           19.000000         4.054143581       316.332039001     -1263.094683884     -1259.019820433        12.886948183
        20           20.000000         4.023961485       313.977025205     -1263.094949312     -1259.048953006        12.896029294
        21           21.000000         3.740601810       291.867363369     -1262.711789962     -1258.947860928        12.983354984
        22           22.000000         4.062404213       316.976590034     -1263.153536234     -1259.066513072        12.896253014
        23           23.000000         4.128651937       322.145691035     -1263.196718374     -1259.042053682        12.915473092
        24           24.000000         3.916075781       305.559043922     -1262.930447511     -1258.986940240        13.537840212
        25           25.000000         3.976463489       310.270906423     -1263.015484110     -1259.010177490        12.924106874
        26           26.000000         3.828398642       298.717873304     -1262.768259178     -1258.909602483        12.854722710
        27           27.000000         4.041088646       315.313403601     -1263.080835685     -1259.008058987        12.914776957
        28           28.000000         4.146791097       323.561032514     -1263.220397347     -1259.040394410        12.967667453
        29           29.000000         3.766510378       293.888927194     -1262.719798199     -1258.918557383        13.601486361
        30           30.000000         3.930166166       306.658472243     -1262.968880413     -1259.002512215        12.922895754
        31           31.000000         4.013648721       313.172352810     -1263.006532237     -1258.955151008        12.266017074
        32           32.000000         3.970923914       309.838670852     -1262.925451540     -1258.915229515        12.942740150
        33           33.000000         4.056525063       316.517858542     -1263.098676360     -1259.001254238        13.011389237
        34           34.000000         3.731033809       291.120802386     -1262.616036944     -1258.842527738        12.924404981
        35           35.000000         3.911032386       305.165523750     -1262.847058041     -1258.892016924        12.905962659
        36           36.000000         4.174055856       325.688415697     -1263.182032682     -1258.962335540        12.242877435
        37           37.000000         3.892140091       303.691417539     -1262.791447792     -1258.851990124        12.247993285
        38           38.000000         3.950020931       308.207676990     -1262.938946555     -1258.939966718        12.301927226
        39           39.000000         3.876242791       302.451001392     -1262.838432839     -1258.911582594        12.333779670
        40           40.000000         3.913073954       305.324820884     -1262.849174195     -1258.883850768        12.252882311
        41           41.000000         4.165663650       325.033598303     -1263.214896212     -1258.995268513        12.967284737
        42           42.000000         3.784656191       295.304787787     -1262.757938620     -1258.917590783        12.873585185
        43           43.000000         3.806036713       296.973042473     -1262.806582524     -1258.943215855        12.913705090
        44           44.000000         4.059927883       316.783369826     -1263.121086098     -1259.002142572        12.890829004
        45           45.000000         3.924948073       306.251320932     -1262.868077934     -1258.882379469        12.214063676
        46           46.000000         4.047496209       315.813365551     -1263.085228942     -1258.975238326        12.260497279
        47           47.000000         3.806708925       297.025493082     -1262.800060195     -1258.929118668        12.850590233
        48           48.000000         3.747838910       292.432051420     -1262.712660611     -1258.898932234        12.896522088
        49           49.000000         4.142271058       323.208348086     -1263.243581506     -1259.033711728        12.234454600
        50           50.000000         3.884801973       303.118847323     -1262.867020054     -1258.912849449        12.878738036
        51           51.000000         3.842098486       299.786828936     -1262.844481220     -1258.931310771        12.893832140
        52           52.000000         3.951162898       308.296781075     -1262.967945876     -1258.944004404        12.284614526
        53           53.000000         3.870258477       301.984064240     -1262.794343915     -1258.849592459        12.859173371
        54           54.000000         4.163492947       324.864225175     -1263.213256428     -1258.973510456        12.873530438
        55           55.000000         3.893901949       303.828889737     -1262.882827557     -1258.910872667        12.229241686
        56           56.000000         3.668849893       286.268787566     -1262.613252223     -1258.864665532        12.206528697
        57           57.000000         4.028528964       314.333411182     -1263.106837476     -1258.996896180        12.230500508
        58           58.000000         3.913050690       305.323005675     -1262.886621736     -1258.890422438        12.234937206
        59           59.000000         3.964631743       309.347712551     -1262.994414295     -1258.944912098        12.260153111
        60           60.000000         3.928232043       306.507558748     -1263.036386256     -1259.021555632        12.193558861
        61           61.000000         3.695779613       288.370028671     -1262.695058814     -1258.911018758        12.263802879
        62           62.000000         4.092051226       319.289852989     -1263.235113865     -1259.053139172        12.839348800
        63           63.000000         3.944083570       307.744403441     -1263.009035285     -1258.973295731        12.234336335
        64           64.000000         3.648749207       284.700394372     -1262.650495493     -1258.908457593        12.195143683
        65           65.000000         3.846496940       300.130026404     -1262.992093599     -1259.050743436        12.878688082
        66           66.000000         3.737318612       291.611185757     -1262.787436909     -1258.953709593        12.836549809
        67           67.000000         3.970000543       309.766623055     -1263.067579852     -1258.999624081        12.898729488
        68           68.000000         3.943100214       307.667675232     -1263.070389639     -1259.027748948        12.831823757
        69           69.000000         3.526492907       275.161120838     -1262.502979665     -1258.875460643        12.911954831
        70           70.000000         3.853372189       300.666480394     -1262.967358257     -1259.011557086        12.866684632
        71           71.000000         3.850485674       300.441254760     -1262.905257566     -1258.950905506        12.210537881
        72           72.000000         3.715457348       289.905420272     -1262.722645607     -1258.901932919        12.211835437
        73           73.000000         3.837724724       299.445558053     -1262.914568792     -1258.970242008        12.214805728
        74           74.000000         3.575654194       278.997021050     -1262.524740282     -1258.841192233        12.892126841
        75           75.000000         3.906031834       304.775346466     -1262.960278456     -1258.945107514        12.873308260
        76           76.000000         4.058832546       316.697904155     -1263.154145838     -1258.984860438        12.844250377
        77           77.000000         3.630501132       283.276554666     -1262.583267429     -1258.841036720        12.236229900
        78           78.000000         3.802412847       296.690283640     -1262.880618801     -1258.965288985        12.268873142
        79           79.000000         3.744426524       292.165793741     -1262.791711024     -1258.933194687        12.178525561
        80           80.000000         3.771986690       294.316226569     -1262.796443278     -1258.909234931        12.203143049
        81           81.000000         3.981412019       310.657024596     -1263.125532310     -1259.027760049        12.229406221
        82           82.000000         3.585608452       279.773720366     -1262.576009142     -1258.872935014        12.213442862
        83           83.000000         3.820906246       298.133265240     -1262.857828727     -1258.918427772        12.221631829
        84           84.000000         4.058312716       316.657343459     -1263.152378071     -1258.974498352        12.210512891
        85           85.000000         3.748725098       292.501197927     -1262.735380897     -1258.866014676        12.150474533
        86           86.000000         3.847975710       300.245410150     -1262.944263950     -1258.974628321        12.171681045
        87           87.000000         3.630988116       283.314552490     -1262.648635912     -1258.895008317        12.231430056
        88           88.000000         3.713313384       289.738133502     -1262.715003686     -1258.878138859        12.825437145
        89           89.000000         4.087272735       318.917002410     -1263.175192268     -1258.963434714        12.863006143
        90           90.000000         3.683931217       287.445535723     -1262.588665428     -1258.779305926        12.226555040
        91           91.000000         3.772668613       294.369434876     -1262.751132904     -1258.852165361        12.165207610
        92           92.000000         3.946340935       307.920538475     -1262.961267189     -1258.887753418        12.194949811
        93           93.000000         3.793195277       295.971065734     -1262.702778582     -1258.781536812        12.231591823
        94           94.000000         4.014439371       313.234044721     -1263.062162670     -1258.918811376        12.234252134
        95           95.000000         3.659008481       285.500893196     -1262.597780638     -1258.809004557        12.204788439
        96           96.000000         3.633319288       283.496446445     -1262.565189755     -1258.801330789        12.899856258
        97           97.000000         4.113656780       320.975666222     -1263.190313469     -1258.945340335        12.196865773
        98           98.000000         3.845723094       300.069645658     -1262.785230201     -1258.807370202        12.245034590
        99           99.000000         3.859055124       301.109901891     -1262.853324960     -1258.861344737        12.227977673
       100          100.000000         3.804909613       296.885098461     -1262.801318910     -1258.862712148        12.840555713
       101          101.000000         3.641492902       284.134207785     -1262.534961558     -1258.759044071        12.231638469
       102          102.000000         4.052616899       316.212916842     -1263.106680400     -1258.918926227        12.202375529
       103          103.000000         3.733524396       291.315135049     -1262.682528941     -1258.813134457        12.171600919
       104          104.000000         3.551932390       277.146083476     -1262.457030581     -1258.768571234        12.261865240
       105          105.000000         3.924867933       306.245067847     -1262.967901239     -1258.905887132        12.201503748
       106          106.000000         3.798945489       296.419736664     -1262.731617970     -1258.794893152        12.194248330
       107          107.000000         3.982528216       310.744117910     -1263.003216902     -1258.882283360        12.180508664
       108          108.000000         3.809110900       297.212911623     -1262.813303326     -1258.865151748        12.248644622
       109          109.000000         3.466744093       270.499109325     -1262.344898176     -1258.738539856        12.195943948
       110          110.000000         3.947553726       308.015168751     -1263.071441617     -1258.983752342        12.169408267
       111          111.000000         3.828051558       298.690791418     -1262.879760624     -1258.911029322        12.895539261
       112          112.000000         3.685500053       287.567947019     -1262.702055796     -1258.875362194        12.855697077
       113          113.000000         3.871465263       302.078225943     -1262.982201760     -1258.969057598        12.795180436
       114          114.000000         3.665120720       285.977811950     -1262.648383196     -1258.841111170        12.915282508
       115          115.000000         4.027020438       314.215705665     -1263.127476180     -1258.957851525        12.228732292
       116          116.000000         3.954081429       308.524504862     -1263.057267254     -1258.960092492        12.173945395
       117          117.000000         3.483239938       271.786228062     -1262.444605154     -1258.817811127        12.223969087
       118          118.000000         3.830081626       298.849191260     -1262.953391378     -1258.979359377        12.191260969
       119          119.000000         3.793381440       295.985591442     -1262.841620242     -1258.903893288        12.822218992
       120          120.000000         3.834826720       299.219435936     -1262.866677530     -1258.887124002        12.267533300
       121          121.000000         3.959705719       308.963350441     -1263.087202895     -1258.982386328        12.188785419
       122          122.000000         3.541528442       276.334296257     -1262.535195413     -1258.848182520        12.822764553
       123          123.000000         3.890925289       303.596630377     -1262.999360460     -1258.962626336        12.872883802
       124          124.000000         3.983642357       310.831050825     -1263.114628269     -1258.984834975        12.876691934
       125          125.000000         3.604709868       281.264143665     -1262.607268341     -1258.856066743        12.879612217
       126          126.000000         3.829548783       298.807615205     -1262.972886166     -1258.996548451        12.868646111
       127          127.000000         3.689684558       287.894450782     -1262.737983147     -1258.901224694        12.827915935
       128          128.000000         3.876649588       302.482742416     -1262.949035762     -1258.925051956        12.296643803
       129          129.000000         4.113821765       320.988539540     -1263.267769808     -1259.006334381        12.836115422
       130          130.000000         3.581482168       279.451759458     -1262.580319634     -1258.850924067        12.822937841
       131          131.000000         3.790959464       295.796612281     -1262.889207190     -1258.950083764        12.886867335
       132          132.000000         3.933730141       306.936557975     -1263.055224972     -1258.973083866        12.829083258
       133          133.000000         3.744169702       292.145754749     -1262.764936742     -1258.872104289        12.881262820
       134          134.000000         3.971085863       309.851307216     -1263.069561890     -1258.949573179        12.181920085
       135          135.000000         3.643445510       284.286563620     -1262.618393181     -1258.825799503        12.815256882
       136          136.000000         3.791993995       295.877333489     -1262.787893659     -1258.846542422        12.249310860
       137          137.000000         4.159138295       324.524445424     -1263.306125700     -1258.997414066        12.881129142
       138          138.000000         3.672097181       286.522163200     -1262.647785797     -1258.825863432        12.157105707
       139          139.000000         3.726274233       290.749427664     -1262.799171024     -1258.922856529        12.190890506
       140          140.000000         3.716325464       289.973156640     -1262.786337900     -1258.919782620        12.218204958
       141          141.000000         3.646535295       284.527649833     -1262.627051661     -1258.830127012        12.193370506
       142          142.000000         4.051316398       316.111442861     -1263.200076375     -1258.998233441        12.195476726
       143          143.000000         3.652275267       284.975521733     -1262.658047460     -1258.855088770        12.197488291
       144          144.000000         3.642653972       284.224802440     -1262.654413086     -1258.860955936        12.200760489
       145          145.000000         4.027485716       314.252009858     -1263.139761454     -1258.961378359        12.272761580
       146          146.000000         3.741038840       291.901463429     -1262.700502365     -1258.808451923        12.257365286
       147          147.000000         3.870070042       301.969361228     -1262.908909375     -1258.887727203        12.225773565
       148          148.000000         3.698329003       288.568949516     -1262.702207849     -1258.852670100        12.222107196
       149          149.000000         3.592281088       280.294365145     -1262.531548337     -1258.787992423        12.204985598
       150          150.000000         4.166163882       325.072629856     -1263.296802667     -1258.979327972        12.194254190
       151          151.000000         3.857255439       300.969478182     -1262.830448831     -1258.821802347        12.222186100
       152          152.000000         3.719772040       290.242082097     -1262.684117326     -1258.812872246        12.156004017
       153          153.000000         3.915498085       305.513968159     -1263.004929637     -1258.937893248        12.239807434
       154          154.000000         3.686548753       287.649773752     -1262.647998713     -1258.809843719        12.209624730
       155          155.000000         4.004459828       312.455372424     -1263.086113339     -1258.929997146        12.150059508
       156          156.000000         3.776178254       294.643281096     -1262.815974007     -1258.888070789        12.201512175
       157          157.000000         3.447348503       268.985732571     -1262.371057401     -1258.771935485        12.169782657
       158          158.000000         3.943792612       307.721700888     -1263.036078485     -1258.940520633        12.213089285
       159          159.000000         3.773667338       294.447362257     -1262.757746654     -1258.832318905        12.164962187
       160          160.000000         3.710981977       289.556221206     -1262.708989214     -1258.846262623        12.227431107
       161          161.000000         3.716152044       289.959625251     -1262.774436061     -1258.906579112        12.179004718
       162          162.000000         3.366632283       262.687700457     -1262.272059914     -1258.753791363        12.160343658
       163          163.000000         3.850533892       300.445017071     -1262.963409896     -1258.961380446        12.158431944
       164          164.000000         3.806942529       297.043720438     -1262.861681346     -1258.903402534        12.184394229
       165          165.000000         3.449102609       269.122599962     -1262.385106330     -1258.784831239        12.157577557
       166          166.000000         3.792715625       295.933639999     -1262.886332015     -1258.942664913        12.183094690
       167          167.000000         3.660327058       285.603777619     -1262.634789200     -1258.823757377        12.135573329
       168          168.000000         3.825955508       298.527243244     -1262.846743882     -1258.870358361        12.141570773
       169          169.000000         3.871929253       302.114429605     -1262.961334737     -1258.939262587        12.134529581
       170          170.000000         3.348797437       261.296103658     -1262.250096179     -1258.751430769        12.156920003
       171          171.000000         3.779988171       294.940556911     -1262.836004973     -1258.906489479        12.138852283
       172          172.000000         3.904272495       304.638070769     -1262.941964500     -1258.888549084        12.201045977
       173          173.000000         3.691230389       288.015067071     -1262.636947799     -1258.796948465        12.134858212
       174          174.000000         3.882582843       302.945695615     -1262.961525436     -1258.930564434        12.186189286
       175          175.000000         3.547750810       276.819807978     -1262.468099149     -1258.772356176        12.169684533
       176          176.000000         3.807873314       297.116346676     -1262.792971718     -1258.837528905        12.166532429
       177          177.000000         4.029179315       314.384156055     -1263.104001462     -1258.927708227        12.818556610
       178          178.000000         3.478926330       271.449650824     -1262.358047950     -1258.732424216        12.822986770
       179          179.000000         3.705668258       289.141608490     -1262.718385020     -1258.866466218        12.796599880
       180          180.000000         3.760667423       293.433019871     -1262.738761046     -1258.832335458        12.821591839
       181          181.000000         3.764658135       293.744402524     -1262.673081128     -1258.763175825        12.218954410
       182          182.000000         4.050800947       316.071223776     -1263.119778184     -1258.924266647        12.165917406
       183          183.000000         3.525017871       275.046028445     -1262.414514681     -1258.745282869        12.215982415
       184          184.000000         3.668377039       286.231892254     -1262.611280701     -1258.799203099        12.178901406
       185          185.000000         4.040353863       315.256070794     -1263.063657513     -1258.880179470        12.144792505
       186          186.000000         3.701963553       288.852542006     -1262.578725247     -1258.734191989        12.150866058
       187          187.000000         3.873562987       302.241904693     -1262.885842373     -1258.870264829        12.204744231
       188          188.000000         3.707433681       289.279358809     -1262.656411654     -1258.807518608        12.123856708
       189          189.000000         3.711779049       289.618414215     -1262.613641369     -1258.760965880        12.179527514
       190          190.000000         4.189711745       326.909995290     -1263.225356975     -1258.895359987        12.219851438
       191          191.000000         3.711173047       289.571129751     -1262.573579374     -1258.722683726        12.160832258
       192          192.000000         3.677515748       286.944956879     -1262.622019778     -1258.805319596        12.129631929
       193          193.000000         3.924234135       306.195614567     -1262.951419447     -1258.888578027        12.175409533
       194          194.000000         3.760357197       293.408813918     -1262.643774814     -1258.745385334        12.158818264
       195          195.000000         4.098747222       319.812320415     -1263.112932733     -1258.876742700        12.200669568
       196          196.000000         3.787352159       295.515145651     -1262.713587764     -1258.789346641        12.167866182
       197          197.000000         3.599916205       280.890109272     -1262.520245105     -1258.783964065        12.201859850
       198          198.000000         4.105265478       320.320919403     -1263.209011194     -1258.967956861        12.144721994
       199          199.000000         3.794450193       296.068982895     -1262.704639504     -1258.774956188        12.176316280
       200          200.000000         3.780956842       295.016139257     -1262.753329144     -1258.837672159        12.143878806
       201          201.000000         3.835308837       299.257053977     -1262.871179224     -1258.901714770        12.420136154
       202          202.000000         3.627560228       283.047085201     -1262.550812369     -1258.789635891        12.132470623
       203          203.000000         4.153971504       324.121297055     -1263.272365918     -1258.985363522        12.191661309
       204          204.000000         3.929879359       306.636093602     -1262.955774977     -1258.893425674        12.752186053
       205          205.000000         3.622365846       282.641783970     -1262.537724224     -1258.783395392        12.227068918
       206          206.000000         4.005168306       312.510652716     -1263.091808728     -1258.955214575        12.118068052
       207          207.000000         3.818005570       297.906934649     -1262.767244402     -1258.818343729        12.148411326
       208          208.000000         3.994460673       311.675169897     -1263.045774865     -1258.920943158        12.752284816
       209          209.000000         3.965515107       309.416638665     -1263.039147631     -1258.943767975        12.232792916
       210          210.000000         3.579681469       279.311256641     -1262.488716427     -1258.779633690        12.153019870
       211          211.000000         4.111487951       320.806439385     -1263.247824731     -1259.007436253        12.170321103
       212          212.000000         4.043186433       315.477087290     -1263.157112548     -1258.985514223        12.838053429
       213          213.000000         3.777628003       294.756400424     -1262.806397130     -1258.900789040        12.819577720
       214          214.000000         3.966727629       309.511247907     -1263.130351915     -1259.036072294        12.818928679
       215          215.000000         3.679725341       287.117364431     -1262.689302114     -1258.882433734        12.778940754
       216          216.000000         4.027542431       314.256435172     -1263.101909504     -1258.947652103        12.247541936
       217          217.000000         4.119118750       321.401846515     -1263.242151522     -1258.996736906        12.758903896
       218          218.000000         3.617486783       282.261086006     -1262.589632798     -1258.846206999        12.787904626
       219          219.000000         3.992184127       311.497538225     -1263.157111235     -1259.039361355        12.803448258
       220          220.000000         3.980120140       310.556223298     -1263.087528360     -1258.982211842        12.152632535
       221          221.000000         3.908976144       305.005081699     -1262.983071403     -1258.949237242        12.829568444
       222          222.000000         4.063247253       317.042369857     -1263.261403649     -1259.073620098        12.757305833
       223          223.000000         3.584822282       279.712378058     -1262.601481526     -1258.892403217        12.789642267
       224          224.000000         3.929220984       306.584722695     -1263.052276815     -1258.999105415        12.778787155
       225          225.000000         4.191747506       327.068839319     -1263.382178836     -1259.066794203        12.828100089
       226          226.000000         3.773663003       294.447024000     -1262.803153709     -1258.906106741        12.837546080
       227          227.000000         3.972946740       309.996505565     -1263.142354558     -1259.046267914        12.750610594