    2699
 i =        0, time =        0.000, E =     -1262.6682849952
  C        11.9686830000       10.0199430000       11.6002800000
  O        12.7052250000        9.0678390000       11.4122200000
  O        11.2995240000       10.7911620000       10.5189810000
  N        11.7874920000       10.6835850000       12.8722260000
  H        11.5766760000       10.4327020000        9.7046520000
  H        11.9920660000       10.0896470000       13.6844350000
  H        10.9037880000       11.2071580000       12.8769020000
  N         9.2383290000       12.1632350000       12.9302480000
  H         8.2738360000       11.8307520000       12.8529270000
  H         9.4795100000       13.0489150000       12.4173850000
  H         9.2451960000       12.3809630000       13.9900580000
  O        26.4035910000       14.7549820000        0.3222640000
  H        26.5105550000       14.3211170000       -0.5650640000
  H        25.4288410000       14.7873160000        0.3369420000
  O        -2.0867850000       18.9400650000        0.9152140000
  H        -2.6400220000       18.1445960000        0.8188960000
  H        -2.4662120000       19.2541470000        1.7795810000
  O         1.1168690000        7.7266530000      -11.9977130000
  H         0.2160050000        7.4517560000      -12.1975650000
  H         1.0355190000        8.6872230000      -11.8068820000
  O        27.1910250000       23.5367320000       -8.3920880000
  H        27.1060330000       24.5356830000       -8.2521500000
  H        26.3289320000       23.3649580000       -8.7284950000
  O        23.1593270000        7.6638840000        9.4646760000
  H        22.9371380000        6.9361700000        8.8995380000
  H        22.3883000000        7.6799900000       10.0573790000
  O        17.4289190000       -2.6713600000        8.5975290000
  H        17.4345720000       -1.9977150000        9.2791320000
  H        16.4866700000       -2.7395520000        8.4419700000
  O        -2.7271670000       22.1101510000       -5.7268710000
  H        -3.0019730000       22.7363240000       -5.0451210000
  H        -2.3248650000       22.6589160000       -6.4155840000
  O        -0.7962690000        8.6949920000        0.4026080000
  H        -0.7292160000        8.4917260000       -0.5637380000
  H        -1.0755450000        9.6275320000        0.3086610000
  O        25.5946960000        3.0263750000       -4.0890060000
  H        24.9996740000        3.8273980000       -4.2085990000
  H        25.1675000000        2.5057590000       -4.8027420000
  O        18.6477620000       22.8572410000       -3.1004500000
  H        18.6838130000       23.3783130000       -2.2366010000
  H        18.5748670000       23.6546650000       -3.7308820000
  O         0.1429740000       10.1033040000        3.2329750000
  H        -0.7615460000       10.0776450000        2.9001970000
  H         0.6618960000        9.6849850000        2.5801570000
  O         7.5523920000       14.8157420000      -15.0337230000
  H         6.9057990000       15.2690760000      -14.4273100000
  H         8.2506370000       15.4875170000      -15.1159730000
  O        23.0118960000        4.1217360000       -4.4562850000
  H        22.6789840000        4.6440130000       -3.7671010000
  H        22.3175130000        3.4335380000       -4.5757710000
  O         2.2847230000        0.6631410000      -10.0018480000
  H         2.2811050000        1.2386710000      -10.8137930000
  H         1.4442540000        1.0466130000       -9.6058110000
  O        21.1921160000        2.2347190000       -4.7461310000
  H        20.4510860000        2.0043800000       -4.1851030000
  H        21.8079410000        1.4569520000       -4.6983610000
  O        11.6932930000        0.8937790000      -11.1854410000
  H        12.1926230000        1.4879730000      -10.6067190000
  H        10.7645180000        1.1887410000      -11.1577840000
  O        -2.7285600000       20.5671650000       -1.7924030000
  H        -1.9530810000       20.5873070000       -2.3655350000
  H        -2.7132290000       19.6559770000       -1.4521720000
  O        25.8225960000       -4.0568900000       -4.4427380000
  H        25.2220920000       -4.7365460000       -4.7967200000
  H        25.2283060000       -3.2399340000       -4.4228120000
  O        19.8085980000       28.6791420000       -6.1604450000
  H        19.7146420000       29.6158830000       -6.3035050000
  H        19.0846370000       28.5096610000       -5.5529720000
  O        17.3237230000       13.1181060000      -10.3679230000
  H        16.5457740000       13.5730530000      -10.7402210000
  H        17.8379590000       13.8932320000      -10.1091700000
  O        10.4848040000       13.9186430000      -14.7442670000
  H        10.1254950000       14.1290610000      -15.6134510000
  H        10.6071600000       14.8418680000      -14.3735320000
  O        17.4305900000       27.7885440000      -12.2673050000
  H        17.8225170000       27.6725750000      -11.4135510000
  H        16.6846500000       27.1316130000      -12.2026690000
  O        20.8666520000        4.5939750000       -8.3795440000
  H        21.8043060000        4.4985690000       -7.9434090000
  H        21.0586800000        4.1837270000       -9.2346730000
  O        22.7736930000       -0.5333830000       -8.2323590000
  H        22.9892880000        0.3888610000       -8.5154330000
  H        21.8064290000       -0.5104190000       -8.3879440000
  O        -2.2208600000        5.5800470000      -10.3975890000
  H        -2.0180630000        6.2423820000      -11.1209900000
  H        -1.6251230000        4.8541830000      -10.7175450000
  O        20.5082720000       11.8244160000       -0.7087660000
  H        20.9686600000       12.7070580000       -0.8634540000
  H        20.3464410000       11.9741720000        0.2465650000
  O        15.3820870000        7.3504040000        2.1262980000
  H        16.0307640000        8.0599860000        2.0153790000
  H        14.6731510000        7.6435240000        1.4877510000
  O        -0.0364270000       24.0359650000        0.1455330000
  H        -0.3385200000       23.9574510000       -0.7760060000
  H         0.6188370000       23.3875310000        0.2531740000
  O        25.4883790000        1.8964380000      -14.1359290000
  H        25.4158570000        0.9786390000      -14.3810910000
  H        24.5854990000        2.1821490000      -14.0278130000
  O        14.3961320000        0.1369060000       -0.4693100000
  H        15.1353240000        0.3317090000       -1.1560320000
  H        13.6556100000        0.6377350000       -0.9291170000
  O        23.4072020000       -2.4465560000        0.5758720000
  H        22.4889320000       -2.1596950000        0.4405810000
  H        23.9468590000       -1.7069150000        0.3470640000
  O        -2.5404200000        5.4845600000      -16.1997800000
  H        -3.3401620000        5.2288460000      -16.6810250000
  H        -2.8987460000        5.9467490000      -15.4817090000
  O        21.5391290000       -4.5528760000        7.3122450000
  H        21.1519830000       -3.6762920000        7.1680130000
  H        20.7856410000       27.0541020000        7.8437990000
  O         6.4618510000       -4.6089540000       10.8392490000
  H         6.5493740000       -3.6155260000       10.6791560000
  H         7.3385950000       -4.8421020000       10.7315200000
  O         6.6839850000        5.5634870000       -2.3106760000
  H         7.5200710000        5.2051990000       -2.6864860000
  H         6.2324550000        4.7314330000       -2.1918010000
  O        11.5900540000       -4.1968200000      -11.6159360000
  H        11.6182010000       -4.5165560000      -10.6619240000
  H        12.4724550000       -3.7637470000      -11.6462190000
  O        24.8560220000       16.3902590000        6.0593360000
  H        25.7232590000       16.0071950000        5.8042210000
  H        25.1862180000       17.2239840000        6.5567240000
  O        23.9597360000        7.1477640000        0.1872760000
  H        24.5943260000        7.5317270000        0.8868150000
  H        24.3780420000        6.2628670000        0.1173750000
  O        23.1882210000        4.5879550000       -7.2313380000
  H        24.0465160000        5.0396820000       -7.4464740000
  H        23.2208440000        4.5665630000       -6.2485070000
  O         3.0294020000        3.1090670000      -14.1712420000
  H         3.9391120000        3.4126480000      -13.9691170000
  H         3.1844740000        2.0956410000      -14.1674360000
  O         9.7439330000        3.1940800000        2.8342280000
  H        10.2538310000        4.0478110000        2.7356460000
  H         8.8447130000        3.5501090000        2.7232260000
  O         9.3606830000        2.0655820000       -2.5982000000
  H         9.2227130000        1.9077160000       -1.6561930000
  H        10.2272540000        1.6117870000       -2.6962210000
  O         6.0880790000        0.3446860000      -12.4460950000
  H         5.3329260000        0.2080320000      -12.9572050000
  H         5.7848750000       -0.0586460000      -11.5421280000
  O        26.2847080000        2.7244430000       -1.4724720000
  H        27.0690440000        3.2753930000       -1.5867510000
  H        26.0364270000        2.6760180000       -2.4194120000
  O        13.2748310000       11.7733600000        0.7942970000
  H        12.6822120000       11.1000710000        0.5236060000
  H        13.0353120000       12.5540050000        0.2536210000
  O         4.8400440000        9.4572420000      -10.4354500000
  H         5.8073590000        9.2326140000      -10.3772710000
  H         4.6578820000        9.0272920000      -11.3263860000
  O         8.6255660000       14.8119060000       -8.5751080000
  H         8.0803260000       14.4716460000       -7.8361100000
  H         8.4674100000       15.7819190000       -8.5034430000
  O        26.8430420000        5.7595270000        8.6442390000
  H        25.9968360000        6.0131010000        8.1302010000
  H        26.4298320000        5.2739070000        9.3535920000
  O        20.0037120000       11.2091050000        6.7238350000
  H        20.5418280000       10.4762250000        7.0997160000
  H        20.5063720000       11.3746900000        5.8374910000
  O        11.7110890000       -1.3521230000       -7.0627910000
  H        10.8529070000       -1.1047000000       -7.5766330000
  H        12.1582340000       -0.4236470000       -7.2164820000
  O        16.9362280000       14.4934180000       -1.7759040000
  H        16.6846310000       13.9247320000       -1.0015280000
  H        16.1332340000       15.0265750000       -1.8184880000
  O         3.5205830000        7.7183850000        9.5621600000
  H         3.0899940000        7.1097910000        8.9667370000
  H         3.9175420000        7.1073700000       10.1761480000
  O         7.5296840000       18.3790780000        3.6646730000
  H         7.0996450000       18.0306780000        2.8665130000
  H         6.7965780000       18.9512900000        4.0662000000
  O         7.8255290000       23.2321360000        0.9360590000
  H         8.2560330000       23.8387550000        1.5777130000
  H         7.1811140000       22.8582670000        1.5597470000
  O         9.3276370000       -2.4543870000      -12.1290890000
  H        10.0492390000       -3.0475050000      -12.2233550000
  H         9.8591080000       -1.6008800000      -12.2873660000
  O        13.6924210000       21.2480470000        7.1926630000
  H        13.2099300000       20.8374610000        6.4623530000
  H        14.2087830000       20.5333180000        7.5981550000
  O         3.3397960000       -4.5617630000        7.2869840000
  H         3.4060580000       -3.7434450000        6.7073700000
  H         4.2997770000       -4.7356660000        7.3964930000
  O        13.5961320000       -0.7324580000      -14.6580900000
  H        14.2057300000       -0.2826600000      -15.2022180000
  H        14.1547980000       -1.3198180000      -14.1221380000
  O        23.9057870000       20.0125640000      -13.4531890000
  H        23.8265000000       19.9180430000      -12.4872520000
  H        24.5982110000       20.6990870000      -13.5628330000
  O         4.3678770000       -6.7481440000        2.6230310000
  H         4.2081490000       25.8181320000        3.4833900000
  H         5.2736160000       -6.2559200000        2.3687290000
  O         3.1793280000       15.4355600000       -1.2896520000
  H         2.5106480000       15.7324300000       -2.0265220000
  H         2.6237450000       15.4903510000       -0.4449870000
  O        22.9151940000       18.0191420000        4.9988200000
  H        22.9966530000       18.8007680000        5.5120800000
  H        23.5833380000       17.4509560000        5.3067150000
  O         6.8677020000        5.8272610000        0.5583170000
  H         5.8822430000        5.8762930000        0.4835160000
  H         7.1030720000        5.8615600000       -0.3785150000
  O        29.6850030000        4.0651680000       11.7030800000
  H        29.4661080000        5.0028630000       11.3851500000
  H        29.8705080000        4.2036050000       12.5544180000
  O         5.4897160000       -3.5177730000       -0.8379910000
  H         6.0274360000       -4.0360950000       -1.4519410000
  H         6.1881190000       -2.8440940000       -0.5329030000
  O        17.2781310000       20.0751270000        2.5687520000
  H        17.4726120000       20.9379630000        2.9916770000
  H        16.3820020000       20.2649560000        2.1796320000
  O        25.2969280000       25.0956440000        0.6522650000
  H        24.7565750000       25.8946800000        0.8019850000
  H        25.9735200000       25.5261760000        0.0679650000
  O        19.9895710000        7.3018440000       -4.7148090000
  H        20.4520700000        7.5565640000       -5.5671650000
  H        19.4057290000        8.1149730000       -4.5672040000
  O        11.1119840000       -1.4608200000       10.0958580000
  H        10.7210910000       -1.3972810000       10.9540110000
  H        11.8601060000       -2.0747970000       10.3588820000
  O         2.2553750000       29.9481180000        7.3938820000
  H         1.3232310000       30.0996400000        7.1276950000
  H         2.1328110000       29.4072910000        8.2150730000
  O         0.2169960000       -1.8713330000       -3.2872880000
  H        -0.3456050000       -2.0194610000       -4.0471950000
  H         1.0456730000       -1.5358440000       -3.7479240000
  O         8.8552840000        8.4762070000      -14.7255050000
  H         9.4961500000        9.1621180000      -14.7981450000
  H         9.4277320000        7.6801270000      -14.5439540000
  O         4.2247670000       -4.8709710000       -4.4217830000
  H         4.1619720000       -4.1100590000       -3.8069520000
  H         4.8025840000       -4.4900820000       -5.1188710000
  O        29.2913300000       11.8010590000      -15.6088720000
  H        28.6322190000       11.6488930000      -16.3032970000
  H        28.8716790000       12.5209520000      -15.0682600000
  O        13.7583920000       12.7352100000        3.3516950000
  H        14.2216680000       11.9514120000        3.7535180000
  H        13.7433660000       12.6418830000        2.3871570000
  O        12.2117230000        8.0589690000       -1.8678230000
  H        12.3696060000        8.9843960000       -2.2399040000
  H        11.8295980000        7.6325810000       -2.6905840000
  O         7.3479500000       12.5648060000      -13.7007480000
  H         7.4225720000       13.3890640000      -14.1851050000
  H         7.6029720000       12.8305420000      -12.8081070000
  O        20.3143410000       -2.2991510000       -2.5091580000
  H        19.7239440000       -2.8730470000       -3.0325400000
  H        20.0814670000       -1.4400770000       -2.9021660000
  O        22.8913750000        2.7853760000      -14.6740640000
  H        22.2814030000        3.4584190000      -14.4085560000
  H        22.4230960000        2.3531870000      -15.4494750000
  O         9.2525240000       18.5974770000       -0.9044020000
  H         9.6012450000       19.4161910000       -0.4864200000
  H         8.4091010000       18.5278930000       -0.4642750000
  O        25.5132030000       -2.9227400000      -10.1424010000
  H        26.2521100000       -2.5352270000      -10.6826990000
  H        25.1801400000       -3.6451480000      -10.7991960000
  O        11.7414340000       17.1684890000       -8.1943650000
  H        12.0835470000       18.0919250000       -8.0829990000
  H        10.7489170000       17.3175320000       -8.2470520000
  O        17.5255130000       10.4780350000        5.7456380000
  H        17.1674690000        9.8033690000        6.3459180000
  H        18.4534380000       10.8254380000        5.9491420000
  O         5.6088210000       17.1243530000        8.6850950000
  H         5.1744840000       16.4981610000        9.3184730000
  H         6.2040850000       16.5570070000        8.1312250000
  O         9.7786950000        1.4764940000        4.9212930000
  H         9.7332650000        1.6924060000        3.9922940000
  H         8.8294730000        1.6960770000        5.1844910000
  O        19.1134410000       17.1044480000        9.6089530000
  H        19.7617660000       16.4496750000        9.1545560000
  H        18.7989120000       17.5226990000        8.7723930000
  O        25.4638730000       24.8414210000        7.7881330000
  H        25.2647150000       24.5330920000        6.8945380000
  H        24.5171110000       24.9225350000        8.0679260000
  O         8.3750920000        7.9743070000       -1.0592460000
  H         7.6458790000        7.5622650000       -1.5395560000
  H         8.0104480000        8.8253300000       -0.7190290000
  O         0.4604940000       -2.7962770000        5.0337990000
  H        -0.1732790000       -2.4670060000        4.3767560000
  H        -0.1315260000       -3.2380320000        5.6791240000
  O         0.8839300000        0.3124380000        2.9593410000
  H         0.5147870000        0.6303350000        3.7916800000
  H         0.1050950000        0.4168760000        2.3442580000
  O         6.3601280000       -1.7183170000        2.3151840000
  H         6.2366210000       -2.1961870000        1.4808710000
  H         6.5726120000       -0.7894970000        2.0449810000
  O        16.3829840000       15.7678870000       10.2187920000
  H        17.2583140000       16.2173230000       10.0985620000
  H        16.5189000000       14.9031620000        9.8282840000
  O        18.8339960000       24.4379010000      -14.8638540000
  H        19.0888250000       23.4523010000      -14.8446020000
  H        17.9826970000       24.3884030000      -14.3343430000
  O         8.9251760000        1.5516180000      -10.2916370000
  H         8.2953950000        1.5405150000      -11.0332340000
  H         8.6440910000        2.2771580000       -9.8361830000
  O        17.2821850000       27.3956380000       -1.2412060000
  H        17.8992840000       -4.3110090000       -0.5450270000
  H        16.4502560000       27.9654010000       -1.1205060000
  O        14.1331320000       20.0497280000       -2.5979770000
  H        13.6683740000       19.6132620000       -1.8486970000
  H        15.0525790000       19.9768180000       -2.2006800000
  O         6.9160900000        1.3458100000        8.5402340000
  H         5.9102130000        1.5623480000        8.5548210000
  H         6.9269120000        1.2289050000        7.5615170000
  O        22.8990420000       -4.5647570000        3.7973610000
  H        22.0953620000       -4.1154050000        4.1422120000
  H        23.0370730000       26.8008190000        4.4768290000
  O         1.5356370000       12.6864740000        2.9204750000
  H         1.1365910000       11.8521400000        2.9830010000
  H         1.6332350000       13.0105900000        3.8866470000
  O         5.9028880000        6.7569020000       -4.5236810000
  H         5.1233080000        6.0835900000       -4.4393000000
  H         6.4048910000        6.5432990000       -3.7541330000
  O        16.4712700000        8.8136540000        7.5600610000
  H        16.2878680000        9.1187670000        8.4378450000
  H        15.7045140000        8.1637170000        7.2955130000
  O        15.0955570000        6.8824170000       -9.3207760000
  H        15.9894740000        7.1631450000       -9.4832250000
  H        14.5909460000        7.6960090000       -9.3769270000
  O         2.3039840000       12.9159460000      -13.6144920000
  H         3.2723940000       13.1616620000      -13.7869730000
  H         2.4315270000       11.9084940000      -13.6797210000
  O        22.2483520000        4.4298610000       -0.8737890000
  H        23.2549290000        4.3920720000       -0.8128370000
  H        22.1111130000        5.2439000000       -1.4511580000
  O         6.4946920000       -1.2942170000       -3.4685120000
  H         6.7884710000       -0.3350570000       -3.4204000000
  H         7.2847660000       -1.6992360000       -3.8094570000
  O        16.0603200000        1.7119910000        8.9997990000
  H        16.0068610000        0.7410190000        8.9724740000
  H        17.0673690000        1.7571510000        9.0196040000
  O         5.8379990000       19.5459880000        1.2016110000
  H         5.8604430000       20.0972080000        0.3697620000
  H         5.3043690000       20.2074850000        1.7642050000
  O         5.1308860000       20.4337650000        9.2446380000
  H         5.8371170000       19.8439750000        9.1819540000
  H         5.5422890000       21.2832050000        9.0392000000
  O        16.7270580000       -2.9911640000       -5.4638790000
  H        16.9493180000       -3.1387330000       -6.4076430000
  H        16.7044140000       -2.0587930000       -5.4201940000
  O        10.6402920000       25.2097130000       -3.5176500000
  H        11.1401720000       -6.8921680000       -2.6486490000
  H        10.9424220000       -5.8858330000       -3.7228850000
  O        -2.6494370000       18.2337930000      -11.9718300000
  H        -1.6633450000       18.3703730000      -11.7931750000
  H        -2.8227020000       19.1806720000      -12.2893280000
  O        -5.3401720000       -3.2524720000        4.9210170000
  H        -5.0933070000       -3.8237620000        5.5545740000
  H        -5.4254640000       -3.8541570000        4.1156810000
  O         9.5407610000        4.9462060000      -13.1152660000
  H         8.7230290000        4.7989020000      -13.5525580000
  H         9.9436190000        4.0447700000      -13.1912730000
  O        22.6197150000        0.0349120000       -4.3041730000
  H        22.9330020000        0.2458720000       -3.4143090000
  H        22.7326390000       -0.9346430000       -4.2997150000
  O        13.0988210000        3.4671050000       -3.4333870000
  H        12.8546560000        3.1846650000       -4.3286040000
  H        13.2423730000        4.4114200000       -3.5038600000
  O         6.0277170000        6.0367210000       11.0828940000
  H         6.4216120000        6.2978590000       10.2389140000
  H         6.6822800000        5.6458800000       11.7408320000
  O        22.3649100000       -4.9487680000       -0.9194130000
  H        22.0727370000       26.8717020000       -0.0232240000
  H        21.9172970000       -4.1451920000       -1.1939380000
  O         0.4743650000        4.7204070000       -0.9583740000
  H         0.6223720000        3.8062750000       -1.2749350000
  H        -0.0165980000        4.5430310000       -0.1129060000
  O        22.1941720000       23.2300380000       -6.8372850000
  H        22.2713580000       22.5873550000       -6.0741230000
  H        21.5707820000       23.8529240000       -6.4360600000
  O        -2.0797460000       -5.2268260000       -0.2233180000
  H        -2.0938680000       -4.5104180000       -0.9144430000
  H        -1.0892700000       -5.2366800000       -0.0902970000
  O         7.2987450000        4.3972980000        2.6904530000
  H         7.1857860000        5.1034270000        1.8891900000
  H         6.3482140000        4.4736490000        2.9526580000
  O        28.1515640000        1.5074040000        2.2236280000
  H        28.9098240000        0.9572340000        2.0413800000
  H        27.5116770000        0.9756680000        2.6141070000
  O        19.4012340000        9.4262090000        3.3858320000
  H        19.6658100000        8.4733630000        3.3728040000
  H        18.9931810000        9.5333130000        4.3190090000
  O        -1.1767050000       11.4325430000        0.6119570000
  H        -1.0609480000       12.0737320000        1.3864350000
  H        -0.6032840000       11.8631060000       -0.0493630000
  O         9.0865660000       13.4706190000        4.0860640000
  H         8.9534890000       13.0669710000        3.1680770000
  H         9.2196090000       12.6704360000        4.6489110000
  O         9.6350790000       26.5333190000       -7.2368890000
  H         9.0905440000       27.2889690000       -6.8604120000
  H        10.3923630000       26.5597440000       -6.6359780000
  O        28.5557420000       23.0610770000      -11.3601980000
  H        28.6242370000       23.1110130000      -10.4037780000
  H        -3.6249060000       24.0028420000      -11.5583310000
  O        -0.1996230000       26.1235750000       -7.6396800000
  H        -0.3140790000       25.9853040000       -8.6338030000
  H        -0.2370140000       25.1866420000       -7.2929450000
  O        -2.5193650000       -1.5655370000        2.2223570000
  H        -2.9049630000       -1.4184910000        3.0740420000
  H        -3.1122370000       -2.2100860000        1.7977960000
  O        10.2771990000       -2.3436110000       -0.6333550000
  H        11.0218770000       -1.9879740000       -0.1028990000
  H        10.7284810000       -2.7967990000       -1.3797010000
  O        13.5650160000       22.4715140000      -10.2649540000
  H        14.4233380000       22.1672780000      -10.6528440000
  H        13.8392770000       23.2665650000       -9.7443300000
  O        10.9608270000       10.1957900000        0.3788260000
  H        11.2844850000       10.1548440000       -0.5408440000
  H        10.2996460000       10.9065010000        0.2254020000
  O        -3.1855600000       22.5926510000       10.5288240000
  H        -2.3644770000       22.4197410000       10.9795920000
  H        -3.1527890000       21.7386930000        9.9862900000
  O         2.9336700000       23.8679900000        5.3017460000
  H         2.4242220000       24.6057190000        5.6798340000
  H         2.9371510000       24.1532440000        4.3348210000
  O        19.7632940000       -2.3224750000      -12.0034070000
  H        19.9130550000       -3.3101790000      -11.9543460000
  H        18.7530940000       -2.3682590000      -12.1610750000
  O        -0.9970260000       13.6341820000       -8.3722960000
  H        -0.7995240000       14.5686380000       -7.9727200000
  H        -1.7361940000       13.9279510000       -8.9562960000
  O        20.4745520000        7.1316050000       -7.7516330000
  H        21.4825900000        7.3570950000       -7.7791860000
  H        20.5785850000        6.1994590000       -8.1467590000
  O        13.8251320000        2.7640200000      -12.3468510000
  H        13.0591310000        3.1626070000      -12.6736670000
  H        14.3699240000        3.5940050000      -12.1408220000
  O        24.7442360000       -0.3028390000      -10.5723000000
  H        24.9779090000       -1.2703290000      -10.4800470000
  H        24.3238770000       -0.1478570000       -9.6955070000
  O        13.9405050000        2.7357870000       10.7029710000
  H        13.1243780000        2.3603060000       10.2512010000
  H        14.7899070000        2.3848710000       10.2477740000
  O        19.3943580000       20.4597660000      -11.9945890000
  H        20.2118550000       20.2499980000      -12.5206490000
  H        19.7896770000       21.1693550000      -11.3743030000
  O        16.5833130000       16.3580340000      -12.4803970000
  H        16.1446400000       15.8074010000      -11.8288120000
  H        16.1548210000       17.2441460000      -12.2479000000
  O        11.4781180000        7.8090640000       14.2051910000
  H        11.2766600000        7.7964720000       13.2677480000
  H        10.6635010000        7.4503420000       14.5441880000
  O        26.9403530000       12.7750830000       -1.6579350000
  H        26.3104990000       12.0455770000       -1.7282590000
  H        26.5558360000       13.4303230000       -2.3456050000
  O         8.0214270000       -2.7295970000       -9.4938620000
  H         8.4839870000       -2.5850070000      -10.3317370000
  H         8.0955690000       -3.6934120000       -9.4042340000
  O        -3.9771130000       16.9859330000        0.6939040000
  H        -3.5917530000       17.0363180000       -0.2281550000
  H        -4.6952430000       16.3557610000        0.5429660000
  O        10.1522300000        2.1291890000        0.3421760000
  H         9.9382100000        2.6078460000        1.1303870000
  H        10.9402920000        2.5772430000       -0.0569680000
  O         6.4188880000       11.5106490000       -5.0316710000
  H         7.2213780000       10.9578470000       -4.8743900000
  H         5.8170290000       11.2465390000       -4.3078180000
  O        18.1061990000       17.3887830000        6.8329300000
  H        18.7996480000       17.3866560000        6.1821210000
  H        18.0064010000       16.4100800000        6.9828170000
  O         8.2338770000       13.4301790000      -11.1385340000
  H         8.5390780000       14.2401860000      -10.7168620000