#     Step Nr.          Time[fs]        Kin.[a.u.]          Temp[K]            Pot.[a.u.]        Cons Qty[a.u.]        UsedTime[s]
         0            0.000000         3.843405441       300.000000000     -1336.921986258     -1333.078105794         0.000000000
         1            1.000000         3.549108095       277.028391831     -1336.533409521     -1332.983011353        50.054542221
         2            2.000000         3.474069944       271.171230566     -1336.463894657     -1332.987809135        12.199192084
         3            3.000000         3.565955665       278.343442017     -1336.585924823     -1333.017290461        12.232355885
         4            4.000000         3.526828646       275.289352124     -1336.472803726     -1332.942682181        12.244211860
         5            5.000000         3.774533326       294.624133450     -1336.842019043     -1333.063614181        12.283079997
         6            6.000000         3.643647064       284.407704524     -1336.636329220     -1332.988244609        12.249743186
         7            7.000000         3.629960371       283.339379101     -1336.579005112     -1332.944087205        12.236844383
         8            8.000000         3.977796989       310.490036748     -1337.007559356     -1333.024294203        11.648104250
         9            9.000000         3.833007110       299.188350162     -1336.761002827     -1332.921988271        12.239579566
        10           10.000000         3.789938996       295.826635043     -1336.730160786     -1332.933687276        11.586832471
        11           11.000000         3.758808997       293.396758753     -1336.704526026     -1332.938670525        11.565563031
        12           12.000000         3.702224032       288.979975360     -1336.571291044     -1332.861531202        11.618740156
        13           13.000000         4.094578921       319.605541251     -1337.066289739     -1332.963680521        11.601599813
        14           14.000000         4.026447599       314.287497968     -1336.964208918     -1332.929174940        12.251292236
        15           15.000000         3.869857948       302.064770948     -1336.782670535     -1332.903649770        12.344907984
        16           16.000000         4.056385467       316.624321503     -1337.053485876     -1332.987343932        12.293539971
        17           17.000000         3.954896906       308.702552980     -1336.883314825     -1332.918024244        11.604422130
        18           18.000000         4.004790933       312.597070019     -1336.967980700     -1332.952135239        12.926982343
        19           19.000000         3.864598549       301.654244520     -1336.828686633     -1332.952351507        12.928836048
        20           20.000000         3.620753077       282.620696571     -1336.550815524     -1332.917674609        12.253943518
        21           21.000000         3.978469200       310.542506665     -1337.035220205     -1333.043730724        12.888407193
        22           22.000000         4.010595431       313.050144627     -1337.046720299     -1333.022419219        12.869904794
        23           23.000000         3.867702083       301.896493247     -1336.877170560     -1332.995056514        12.268717654
        24           24.000000         3.871895759       302.223833905     -1336.947687684     -1333.060676572        12.926799908
        25           25.000000         3.667418419       286.263196108     -1336.656843756     -1332.973623403        12.236874692
        26           26.000000         3.868172981       301.933249601     -1336.950147047     -1333.065509806        12.946183391
        27           27.000000         3.884744599       303.226760063     -1336.992256439     -1333.090364825        12.881452926
        28           28.000000         3.580656782       279.490949142     -1336.580977983     -1332.982515425        12.246778004
        29           29.000000         3.779936508       295.045883038     -1336.884161820     -1333.085807841        12.222201668
        30           30.000000         3.841200555       299.827895911     -1336.901197257     -1333.040960802        12.277921528
        31           31.000000         3.872184380       302.246362457     -1336.917711911     -1333.025865987        12.253278017
        32           32.000000         3.879693152       302.832465450     -1336.983973706     -1333.083984073        12.223916151
        33           33.000000         3.531376692       275.644353384     -1336.530792493     -1332.978512622        12.287218608
        34           34.000000         3.717585798       290.179049889     -1336.776426408     -1333.037389881        12.226726308
        35           35.000000         3.911862700       305.343484532     -1336.999207278     -1333.065341146        12.240054704
        36           36.000000         3.748979933       292.629543510     -1336.772328237     -1333.000784140        12.223007105
        37           37.000000         3.830060559       298.958354811     -1336.925519199     -1333.072351377        12.204917967
        38           38.000000         3.728624682       291.040698610     -1336.775148170     -1333.022880624        11.552094877
        39           39.000000         3.844828039       300.111041947     -1336.878941493     -1333.009950254        12.250593379
        40           40.000000         4.017800184       313.612517190     -1337.123569706     -1333.081063145        12.218901195
        41           41.000000         3.666853596       286.219108401     -1336.639189935     -1332.947076293        12.276644513
        42           42.000000         3.727369726       290.942742030     -1336.752508215     -1332.999368691        12.209344000
        43           43.000000         3.918146005       305.833932792     -1336.983184450     -1333.038760233        12.229676016
        44           44.000000         3.932045735       306.918887037     -1336.926059740     -1332.967201789        12.896260761
        45           45.000000         4.077841478       318.299087097     -1337.142795602     -1333.037573668        12.904130064
        46           46.000000         3.820049671       298.176947160     -1336.809331443     -1332.961302150        12.930220790
        47           47.000000         3.802973208       296.844030590     -1336.779030405     -1332.947496288        12.223402157
        48           48.000000         4.052107258       316.290382536     -1337.122062274     -1333.040794914        12.195679009
        49           49.000000         3.841425096       299.845422569     -1336.827698787     -1332.956479085        12.234302729
        50           50.000000         3.830177458       298.967479467     -1336.829197268     -1332.968602141        11.599428460
        51           51.000000         3.827282581       298.741517630     -1336.841638076     -1332.983316632        12.225551024
        52           52.000000         3.845722422       300.180853761     -1336.813271789     -1332.935888992        12.232542992
        53           53.000000         4.138814429       323.058378233     -1337.215621248     -1333.044489923        12.206223212
        54           54.000000         3.898447540       304.296353838     -1336.911694647     -1332.980220113        12.238440350
        55           55.000000         3.740421569       291.961513794     -1336.752105302     -1332.977966522        12.246187799
        56           56.000000         3.907772022       305.024183513     -1336.993942622     -1333.051772675        11.533898450
        57           57.000000         3.824002728       298.485506154     -1336.839253459     -1332.980155897        12.249100380
        58           58.000000         3.929526856       306.722273981     -1337.010708980     -1333.045385320        12.196187824
        59           59.000000         3.824947988       298.559289100     -1336.891865036     -1333.030403914        12.219331518
        60           60.000000         3.704080768       289.124904300     -1336.707777238     -1332.966489514        12.230852611
        61           61.000000         4.035619516       315.003419040     -1337.143432457     -1333.069907077        12.210346982
        62           62.000000         3.947407467       308.117958994     -1336.980120432     -1332.994054919        12.210611224
        63           63.000000         3.813162768       297.639384586     -1336.832105128     -1332.979530692        12.303903386
        64           64.000000         3.849953481       300.511112312     -1336.919084968     -1333.028974829        11.578182779
        65           65.000000         3.756683511       293.230852282     -1336.749490029     -1332.951909696        11.587000608
        66           66.000000         4.001782566       312.362249629     -1337.073597771     -1333.030169708        11.564837545
        67           67.000000         3.947798113       308.148451161     -1337.020872011     -1333.030633614        11.613054983
        68           68.000000         3.723539770       290.643791796     -1336.719669704     -1332.952903245        11.573949791
        69           69.000000         3.937446818       307.340472793     -1337.015486561     -1333.034037826        12.224508554
        70           70.000000         3.912188950       305.368950261     -1336.938089608     -1332.981088390        11.593706124
        71           71.000000         3.917048125       305.748236893     -1336.946571532     -1332.983885052        11.584075339
        72           72.000000         3.919178458       305.914521710     -1336.971153648     -1333.005491924        11.632561617
        73           73.000000         3.698125040       288.660025319     -1336.662385151     -1332.916942882        11.607209727
        74           74.000000         3.934550608       307.114406860     -1336.975430428     -1332.992741315        11.536579341
        75           75.000000         3.988280879       311.308364958     -1337.041638921     -1333.004349585        11.533366330
        76           76.000000         3.789826432       295.817848757     -1336.768463614     -1332.928748483        11.569341011
        77           77.000000         3.870988438       302.153012209     -1336.923418888     -1333.001675020        11.556980789
        78           78.000000         3.782337390       295.233285780     -1336.799805589     -1332.965842207        11.624413483
        79           79.000000         3.912990564       305.431520876     -1336.954630168     -1332.989141535        12.235586569
        80           80.000000         4.003426908       312.490600011     -1337.086730707     -1333.029891642        12.181721777
        81           81.000000         3.708776166       289.491407258     -1336.697208561     -1332.934103793        12.232621096
        82           82.000000         3.852059850       300.675526559     -1336.904964728     -1332.997689922        11.632949278
        83           83.000000         3.964125290       309.422881607     -1337.017162512     -1332.996901203        11.566667348
        84           84.000000         3.899051331       304.343483181     -1336.907841933     -1332.951704113        11.577703841
        85           85.000000         3.961265083       309.199625931     -1337.031777830     -1333.012457503        11.557903141
        86           86.000000         3.754831211       293.086269573     -1336.744306710     -1332.930448515        11.552179322
        87           87.000000         3.883310607       303.114828768     -1336.892505530     -1332.949211332        11.519592501
        88           88.000000         4.083249503       318.721214676     -1337.177337628     -1333.033092358        12.184983388
        89           89.000000         3.844176419       300.060179264     -1336.855614911     -1332.949393588        12.160088740
        90           90.000000         3.869863842       302.065231007     -1336.938961428     -1333.006020563        12.166444525
        91           91.000000         3.866395791       301.794529613     -1336.945642061     -1333.015125332        12.229824483
        92           92.000000         3.887262061       303.423262541     -1336.920774871     -1332.968336080        12.192935206
        93           93.000000         4.056553536       316.637440212     -1337.168010030     -1333.045180612        12.220894605
        94           94.000000         3.793900941       296.135887769     -1336.819226597     -1332.957926923        12.145040520
        95           95.000000         3.792496307       296.026247968     -1336.835838564     -1332.974857247        12.225002915
        96           96.000000         3.987028927       311.210642852     -1337.091543624     -1333.034916603        12.213874973
        97           97.000000         3.882337693       303.038887185     -1336.930889033     -1332.977801249        12.176771216
        98           98.000000         3.937626841       307.354524612     -1336.991344736     -1332.981806442        12.196434394
        99           99.000000         3.805591309       297.048388527     -1336.819951578     -1332.941280196        12.172858648
       100          100.000000         3.779496952       295.011573150     -1336.767653168     -1332.913931831        12.225942470
       101          101.000000         4.052870940       316.349992352     -1337.118985689     -1332.990709547        12.239017785
       102          102.000000         3.880589563       302.902435491     -1336.893855813     -1332.936629096        12.231794141
       103          103.000000         3.803431643       296.879814054     -1336.827465260     -1332.946188904        12.152169541
       104          104.000000         3.865043148       301.688948024     -1336.931363866     -1332.987271074        12.162534289
       105          105.000000         3.802589568       296.814085242     -1336.815449909     -1332.932600446        11.585725620
       106          106.000000         3.980216603       310.678901627     -1337.044324565     -1332.982617504        12.249675751
       107          107.000000         3.837901721       299.570402818     -1336.878643431     -1332.957991366        12.830266558
       108          108.000000         3.711982228       289.741658880     -1336.704913212     -1332.908960519        12.795330353
       109          109.000000         3.966138285       309.580007516     -1337.018681007     -1332.967344213        12.204275995
       110          110.000000         3.909040985       305.123233393     -1336.902098688     -1332.906578540        12.149121813
       111          111.000000         3.903334045       304.677773768     -1336.932806609     -1332.941704357        12.208933294
       112          112.000000         3.874023996       302.389955073     -1336.919525944     -1332.956435121        12.220332526
       113          113.000000         3.740085480       291.935280069     -1336.740716060     -1332.910285220        12.205084525
       114          114.000000         3.990847001       311.508665595     -1337.060162360     -1332.977679313        12.183387578
       115          115.000000         3.943581168       307.819294190     -1336.986971372     -1332.950403287        12.207615271
       116          116.000000         3.784545612       295.405650242     -1336.785888240     -1332.907019214        12.167626105
       117          117.000000         3.911417086       305.308701774     -1336.971800800     -1332.964730667        11.575961053
       118          118.000000         3.855006099       300.905498361     -1336.862714845     -1332.910701664        12.158754796
       119          119.000000         3.960589862       309.146921086     -1337.005165693     -1332.946196553        11.538481809
       120          120.000000         3.937542575       307.347947164     -1336.996502788     -1332.959170620        11.546845734
       121          121.000000         3.713147497       289.832614874     -1336.697579064     -1332.883259402        12.211528607
       122          122.000000         3.924211838       306.307406098     -1336.988078788     -1332.961327211        11.576797232
       123          123.000000         3.963691199       309.388998342     -1337.018406598     -1332.950748623        12.148715958
       124          124.000000         3.874468599       302.424658934     -1336.904223953     -1332.924347187        12.145910122
       125          125.000000         3.908611459       305.089706438     -1337.000671117     -1332.985208781        11.547050297
       126          126.000000         3.748020535       292.554656941     -1336.783942761     -1332.927642228        12.246444337
       127          127.000000         3.904772225       304.790032002     -1336.993953680     -1332.979482679        12.204719052
       128          128.000000         3.991116492       311.529700866     -1337.110506297     -1333.008215031        12.184537001
       129          129.000000         3.763881415       293.792690279     -1336.810517102     -1332.933988461        11.545112200
       130          130.000000         3.862847205       301.517541951     -1336.976395882     -1332.999460257        12.168731496
       131          131.000000         3.888310488       303.505098358     -1336.966864084     -1332.962997894        12.199413352
       132          132.000000         3.926299456       306.470356737     -1337.009176599     -1332.965832479        12.216572985
       133          133.000000         3.995789832       311.894482100     -1337.135598215     -1333.021236418        12.232792407
       134          134.000000         3.730043056       291.151410861     -1336.798995963     -1332.948869740        12.225271836
       135          135.000000         3.807766049       297.218139503     -1336.912299486     -1332.982990350        12.187444575
       136          136.000000         3.947993046       308.163666796     -1337.092071825     -1333.021040119        12.211239547
       137          137.000000         3.830635037       299.003196195     -1336.912482818     -1332.957295886        12.166249968
       138          138.000000         3.895384871       304.057294787     -1337.007401172     -1332.985961024        12.180582941
       139          139.000000         3.785680465       295.494232094     -1336.860298844     -1332.947064427        12.184750177
       140          140.000000         3.819115429       298.104024164     -1336.884168438     -1332.936025465        12.237519301
       141          141.000000         3.991937815       311.593809943     -1337.120122344     -1332.997647438        12.170487814
       142          142.000000         3.765305900       293.903879564     -1336.784379247     -1332.887020330        12.171448059
       143          143.000000         3.766045923       293.961642668     -1336.808590472     -1332.909032746        12.219837695
       144          144.000000         3.850399179       300.545901636     -1336.911610103     -1332.926240773        12.273305580
       145          145.000000         3.813408964       297.658601633     -1336.832414341     -1332.882573373        12.165369719
       146          146.000000         3.937590096       307.351656458     -1337.011433613     -1332.935939351        12.196781941
       147          147.000000         3.761132763       293.578142118     -1336.804257039     -1332.903751190        12.155858204
       148          148.000000         3.712929806       289.815622804     -1336.744382302     -1332.890671061        12.205055997
       149          149.000000         3.917014614       305.745621182     -1337.036041530     -1332.976832707        12.195985124
       150          150.000000         3.791274814       295.930903328     -1336.860220312     -1332.925322971        12.199289724
       151          151.000000         3.784063711       295.368035102     -1336.894481779     -1332.965404974        12.182139449
       152          152.000000         3.754954891       293.095923492     -1336.895269076     -1332.993935328        12.221905872
       153          153.000000         3.711547217       289.707703764     -1336.813897726     -1332.954642670        12.211620674
       154          154.000000         3.937322267       307.330750839     -1337.128616565     -1333.042251133        12.192987598
       155          155.000000         3.805881518       297.071040986     -1336.962150440     -1333.005870741        12.177868359
       156          156.000000         3.680364596       287.273720027     -1336.819324556     -1332.987265621        12.224729322
       157          157.000000         3.808263770       297.256989487     -1337.010115253     -1333.048893365        12.215639777
       158          158.000000         3.770376679       294.299683173     -1336.919925939     -1332.995330241        12.199884698
       159          159.000000         3.875269811       302.487198172     -1337.087549248     -1333.056806816        12.244841076
       160          160.000000         3.798120011       296.465210490     -1337.027384466     -1333.072539430        12.217166781
       161          161.000000         3.641872649       284.269201171     -1336.804856482     -1333.005062617        12.189656690
       162          162.000000         3.851997603       300.670667853     -1337.093259004     -1333.082173726        12.163837552
       163          163.000000         3.830323091       298.978846931     -1337.048297101     -1333.057702358        12.224275582
       164          164.000000         3.758917552       293.405232139     -1336.972865822     -1333.052518759        11.519580074
       165          165.000000         3.781373937       295.158082703     -1337.033361480     -1333.089430019        12.238629423
       166          166.000000         3.679343995       287.194056249     -1336.844977063     -1333.001982389        12.183600836
       167          167.000000         3.866785829       301.824974316     -1337.071056672     -1333.039547924        12.188685186
       168          168.000000         3.897546259       304.226003651     -1337.101664259     -1333.038299281        11.525281370
       169          169.000000         3.722997357       290.601453359     -1336.828649122     -1332.938760182        12.247114904
       170          170.000000         3.828985231       298.874419282     -1337.016464051     -1333.019549320        12.190340437
       171          171.000000         3.824714820       298.541089030     -1336.965577272     -1332.971895090        12.255211763
       172          172.000000         3.879512536       302.818367349     -1336.994261192     -1332.944747494        12.159521170
       173          173.000000         3.935346010       307.176492554     -1337.066320176     -1332.959925852        12.201258875
       174          174.000000         3.764559197       293.845595114     -1336.818324599     -1332.881681521        12.158589512
       175          175.000000         3.921548048       306.099481948     -1337.017019741     -1332.922370824        12.186736159
       176          176.000000         4.004712815       312.590972497     -1337.113169034     -1332.934301746        11.553894982
       177          177.000000         3.896086463       304.112058092     -1336.959226272     -1332.887916717        12.186539218
       178          178.000000         3.955534735       308.752339216     -1337.061204705     -1332.929379798        12.178246602
       179          179.000000         3.865084585       301.692182423     -1336.934799774     -1332.892353401        12.185923539
       180          180.000000         3.939227145       307.479437545     -1337.018509899     -1332.900853444        12.179391697
       181          181.000000         4.046432503       315.847435174     -1337.180309335     -1332.954345302        12.209540688
       182          182.000000         3.849567919       300.481017015     -1336.905831239     -1332.875619409        12.219052978
       183          183.000000         3.900331067       304.443373993     -1336.988991911     -1332.906928958        12.203180157
       184          184.000000         3.932224313       306.932826080     -1337.023885693     -1332.908830462        12.199281096
       185          185.000000         3.874306062       302.411971942     -1336.940189652     -1332.881953450        12.183433935
       186          186.000000         3.958503660       308.984080975     -1337.080790205     -1332.937255765        11.578414954
       187          187.000000         3.810644473       297.442817108     -1336.890544856     -1332.893772881        12.151193447
       188          188.000000         3.832292177       299.132545486     -1336.953500612     -1332.934016744        12.221062146
       189          189.000000         3.965836174       309.556426027     -1337.147989141     -1332.993887593        12.177335031
       190          190.000000         3.836788553       299.483513643     -1336.958892616     -1332.932759125        11.562580489
       191          191.000000         3.860002174       301.295470838     -1337.017631403     -1332.967229893        12.243014693
       192          192.000000         3.809686192       297.368017740     -1336.963683478     -1332.962558809        12.176165670
       193          193.000000         3.774929192       294.655033135     -1336.906350128     -1332.938974075        12.194203608
       194          194.000000         3.927343521       306.551852058     -1337.120531368     -1332.999739193        11.522735901
       195          195.000000         3.772921181       294.498296275     -1336.926429763     -1332.959062337        11.508273542
       196          196.000000         3.735687789       291.592014870     -1336.892349207     -1332.961266261        12.230134048
       197          197.000000         3.850074825       300.520583957     -1337.019899781     -1332.973501648        12.198213272
       198          198.000000         3.786841442       295.584853023     -1336.909489878     -1332.925406534        12.175383329
       199          199.000000         3.857308873       301.085243157     -1337.024794758     -1332.969345332        12.193344355
       200          200.000000         3.762852375       293.712367783     -1336.909579988     -1332.947705186        12.250013322
       201          201.000000         3.681032093       287.325822068     -1336.790990484     -1332.910102080        12.324485928
       202          202.000000         3.868835813       301.984987452     -1337.021961048     -1332.952460870        12.159459546
       203          203.000000         3.818251790       298.036612174     -1336.924076138     -1332.904350114        12.155677542
       204          204.000000         3.797558755       296.421401251     -1336.915149186     -1332.915330121        11.518445864
       205          205.000000         3.816725609       297.917484938     -1336.950104219     -1332.930352398        12.195091523
       206          206.000000         3.730478047       291.185364417     -1336.821774359     -1332.887530335        12.234641150
       207          207.000000         3.873604093       302.357179235     -1337.015780971     -1332.937693877        12.141230553
       208          208.000000         3.838159174       299.590498500     -1336.977407881     -1332.934048316        12.146830760
       209          209.000000         3.734892111       291.529907637     -1336.821767013     -1332.880983900        12.140920103
       210          210.000000         3.861010108       301.374145918     -1337.000382583     -1332.932815757        12.197501421
       211          211.000000         3.837638012       299.549818833     -1336.945709745     -1332.900851405        12.173113018
       212          212.000000         3.910018651       305.199545845     -1337.041200496     -1332.923303453        11.510868452
       213          213.000000         3.930118170       306.768429431     -1337.094029177     -1332.955365593        12.178232230
       214          214.000000         3.761427260       293.601129322     -1336.859194333     -1332.888565715        12.189404152
       215          215.000000         3.861536153       301.415206756     -1337.011067234     -1332.939700293        12.145163991
       216          216.000000         3.872109462       302.240514624     -1337.019761391     -1332.937192052        11.527445309
       217          217.000000         3.808689420       297.290213948     -1336.936606989     -1332.916839825        11.479578748
       218          218.000000         3.869564293       302.041849491     -1337.075031136     -1332.993786048        12.193071276
       219          219.000000         3.771254745       294.368221296     -1336.937676013     -1332.954149615        12.125158079
       220          220.000000         3.827150873       298.731237044     -1337.005929110     -1332.965939868        11.529206038
       221          221.000000         3.866033933       301.766284527     -1337.074234730     -1332.994802505        12.178849764
       222          222.000000         3.712242832       289.762000561     -1336.872301074     -1332.946118506        12.140134692
       223          223.000000         3.762097022       293.653408129     -1336.961244279     -1332.984703720        11.494842023
       224          224.000000         3.740913841       291.999938467     -1336.929100441     -1332.973263934        11.475430779
       225          225.000000         3.726481632       290.873421111     -1336.897895462     -1332.956042647        11.489049047
       226          226.000000         3.832068485       299.115085082     -1337.038114750     -1332.990249409        11.561741687
       227          227.000000         3.735222329       291.555683026     -1336.840822285     -1332.889391869        11.491667643