#     Step Nr.          Time[fs]        Kin.[a.u.]          Temp[K]            Pot.[a.u.]        Cons Qty[a.u.]        UsedTime[s]
         0            0.000000         3.843405441       300.000000000      -992.528306970      -988.684426506         0.000000000
         1            1.000000         3.905085564       304.814489939      -992.652497679      -988.746074101        41.492333403
         2            2.000000         3.723166681       290.614670057      -992.432154935      -988.706794368        10.760074098
         3            3.000000         3.683821925       287.543584557      -992.373848412      -988.687021237        10.694651086
         4            4.000000         3.912356428       305.382022889      -992.680145206      -988.763976408        10.765770128
         5            5.000000         3.807708662       297.213660143      -992.550848682      -988.738501769        10.759592479
         6            6.000000         3.798506541       296.495381442      -992.579895284      -988.775941413        10.732554747
         7            7.000000         3.826889740       298.710854056      -992.619464787      -988.786324509        10.234355938
         8            8.000000         3.803216926       296.863054173      -992.567371856      -988.757105167        10.187500486
         9            9.000000         3.970204338       309.897386435      -992.832242178      -988.854177013        10.207195608
        10           10.000000         3.791555793       295.952835392      -992.618926541      -988.818683184        10.736464895
        11           11.000000         3.663416052       285.950788301      -992.455398712      -988.782509628        10.220169490
        12           12.000000         3.853681736       300.802124150      -992.726588809      -988.862669533        10.733797753
        13           13.000000         3.854080409       300.833242930      -992.680879148      -988.815779768        10.733162612
        14           14.000000         3.917421415       305.777374355      -992.770188073      -988.840955888        10.764460318
        15           15.000000         3.847597365       300.327203892      -992.705779317      -988.845568335        10.229700584
        16           16.000000         3.709882517       289.577764299      -992.518243865      -988.794966953        10.228325915
        17           17.000000         3.913128025       305.442250494      -992.790511684      -988.863219669        10.172473781
        18           18.000000         3.844690568       300.100311543      -992.667092392      -988.807447201        10.223061230
        19           19.000000         3.702344473       288.989376461      -992.493451262      -988.775384301        10.692993961
        20           20.000000         3.768478725       294.151536881      -992.589743568      -988.804804504        10.717764150
        21           21.000000         3.751013480       292.788273613      -992.519603549      -988.751403506        10.181261864
        22           22.000000         3.933467513       307.029865062      -992.739740818      -988.788357832        10.231691360
        23           23.000000         3.894716218       304.005102526      -992.700096921      -988.786709741        10.692519952
        24           24.000000         3.667901056       286.300868730      -992.417275914      -988.729968186        10.718555164
        25           25.000000         3.805841566       297.067922487      -992.612356913      -988.786406772        10.715516189
        26           26.000000         3.821385987       298.281254335      -992.603882236      -988.761681451        10.699999139
        27           27.000000         3.803320543       296.871142080      -992.580405426      -988.755568970        10.166332221
        28           28.000000         3.812695273       297.602893944      -992.639400018      -988.804495442        10.187094426
        29           29.000000         3.683060698       287.484166370      -992.438578109      -988.732634611        10.720789846
        30           30.000000         3.890841625       303.702668204      -992.675173941      -988.760792061        10.134183045
        31           31.000000         3.975671093       310.324098254      -992.778524688      -988.778623383        10.202209475
        32           32.000000         3.767541221       294.078359312      -992.515680033      -988.723209837        10.212447621
        33           33.000000         3.774021183       294.584157730      -992.566522069      -988.766900474        10.190637620
        34           34.000000         3.733595200       291.428676223      -992.496878841      -988.737029013        10.141882816
        35           35.000000         3.830420142       298.986422391      -992.607268413      -988.749952313        10.149161020
        36           36.000000         3.909609178       305.167584102      -992.734088719      -988.796929815        10.155371763
        37           37.000000         3.672800951       286.683333887      -992.442574990      -988.741577984        10.130295271
        38           38.000000         3.753768982       293.003356459      -992.570071987      -988.787498783        10.698667185
        39           39.000000         3.861297119       301.396548803      -992.696729797      -988.806021331        10.153351421
        40           40.000000         3.785779053       295.501927474      -992.597263560      -988.781463841        10.133576175
        41           41.000000         3.796111541       296.308437844      -992.654008039      -988.827280343        10.671249736
        42           42.000000         3.641735301       284.258480420      -992.499052045      -988.826128790        10.738340281
        43           43.000000         3.734219494       291.477406007      -992.607154394      -988.841212260        10.625486761
        44           44.000000         3.937486651       307.343581961      -992.891290231      -988.921543092        11.209385041
        45           45.000000         3.766582244       294.003505607      -992.666365850      -988.866972827        10.675133344
        46           46.000000         3.737215789       291.711284094      -992.666313107      -988.895761350        10.769641653
        47           47.000000         3.742543486       292.127141690      -992.679168551      -988.902784704        10.638820719
        48           48.000000         3.749549091       292.673969630      -992.681797404      -988.897921614        10.697471894
        49           49.000000         3.885569646       303.291159805      -992.873103850      -988.952726579        10.653686680
        50           50.000000         3.703146193       289.051955336      -992.642656341      -988.904223201        11.181670656
        51           51.000000         3.688050064       287.873615236      -992.620505128      -988.896723477        11.227706902
        52           52.000000         3.880987473       302.933494659      -992.858191632      -988.941042001        11.191216068
        53           53.000000         3.825968207       298.638923095      -992.746595756      -988.884024767        10.642765401
        54           54.000000         3.841289914       299.834870869      -992.806260541      -988.927930353        11.225837365
        55           55.000000         3.734682389       291.513537631      -992.681582927      -988.909430486        11.228357786
        56           56.000000         3.696474661       288.531203727      -992.610469962      -988.876122179        11.198671842
        57           57.000000         3.917093526       305.751780702      -992.893175385      -988.937817664        11.204889255
        58           58.000000         3.812719800       297.604808382      -992.739553857      -988.888165215        11.166553084
        59           59.000000         3.745310309       292.343108165      -992.648760282      -988.864389612        10.653770456
        60           60.000000         3.838595629       299.624566340      -992.790368637      -988.912334277        11.193731220
        61           61.000000         3.829091166       298.882688136      -992.739807501      -988.870897564        11.206200475
        62           62.000000         3.959603697       309.069945199      -992.896386239      -988.896576006        10.694904000
        63           63.000000         3.846266761       300.223342491      -992.762805733      -988.875925399        10.679187544
        64           64.000000         3.700988360       288.883523984      -992.563094250      -988.821097743        10.643615214
        65           65.000000         3.890286259       303.659318699      -992.813991605      -988.882319156        10.638013396
        66           66.000000         3.873939036       302.383323436      -992.767370846      -988.851653449        10.704540152
        67           67.000000         3.855111046       300.913690106      -992.737824169      -988.840537038        10.687200464
        68           68.000000         3.838029686       299.580391234      -992.745950707      -988.865345374        10.654170614
        69           69.000000         3.740431720       291.962306083      -992.603282262      -988.819882976        10.688886680
        70           70.000000         3.935493435       307.187999932      -992.879479328      -988.900633303        10.712852791
        71           71.000000         3.897042532       304.186684795      -992.823541628      -988.882739406        10.698807595
        72           72.000000         3.718051298       290.215384860      -992.622120987      -988.859905525        10.670358665
        73           73.000000         3.797278828       296.399551335      -992.761123262      -988.919297890        10.692533892
        74           74.000000         3.777767669       294.876592636      -992.784958650      -988.962269019        12.769006114
        75           75.000000         3.856400721       301.014356631      -992.884158603      -988.982466700        12.764273850
        76           76.000000         3.839151484       299.667954047      -992.874374777      -988.989558183        12.896020392
        77           77.000000         3.631990190       283.497818208      -992.585999618      -988.907985070        11.732170055
        78           78.000000         3.768803387       294.176878609      -992.783951703      -988.968799306        11.735164577
        79           79.000000         3.816822478       297.925046116      -992.830527666      -988.967038782        11.735863168
        80           80.000000         3.728823698       291.056232962      -992.710104753      -988.934306008        11.180591909
        81           81.000000         3.748131684       292.563332755      -992.754017579      -988.958623356        10.685400439
        82           82.000000         3.653875973       285.206130018      -992.612248121      -988.910844660        10.689805327
        83           83.000000         3.796976024       296.375915694      -992.787894372      -988.943154104        10.691634972
        84           84.000000         3.871535556       302.195717941      -992.884070799      -988.964536989        10.636112455
        85           85.000000         3.660320378       285.709153055      -992.552934001      -988.844385719        10.692760095
        86           86.000000         3.702308025       288.986531467      -992.630893062      -988.880160661        10.646764200
        87           87.000000         3.730505284       291.187490465      -992.617895816      -988.838794402        10.680447249
        88           88.000000         3.768413495       294.146445349      -992.640718173      -988.823556146        10.656899210
        89           89.000000         3.847175168       300.294248937      -992.757910019      -988.861844539        10.656343408
        90           90.000000         3.674095557       286.784385335      -992.521267914      -988.798146521        10.648161348
        91           91.000000         3.767738786       294.093780366      -992.635855234      -988.818982271        10.190440046
        92           92.000000         3.927366464       306.553642865      -992.832032260      -988.855432365        10.139692951
        93           93.000000         3.816689100       297.914635201      -992.662340650      -988.796307487        10.166409325
        94           94.000000         3.809120423       297.323856213      -992.689750623      -988.831179207        10.666042468
        95           95.000000         3.712088316       289.749939713      -992.566725826      -988.805089219        10.161064243
        96           96.000000         3.756031303       293.179943708      -992.605541009      -988.799886392        10.138770053
        97           97.000000         3.932997554       306.993182013      -992.841459742      -988.858775270        10.117324179
        98           98.000000         3.765395354       293.910862014      -992.637888686      -988.822732938        10.643169222
        99           99.000000         3.744897935       292.310920008      -992.621634065      -988.826915193        10.664958576
       100          100.000000         3.824341954       298.511984703      -992.736327131      -988.862119811        10.701711038
       101          101.000000         3.800434146       296.645842133      -992.704479248      -988.854140978        10.650444228
       102          102.000000         3.867078545       301.847822524      -992.797235753      -988.880220154        10.642549867
       103          103.000000         3.694966633       288.413493390      -992.591038521      -988.846103237        10.645934775
       104          104.000000         3.646251268       284.610977742      -992.546792418      -988.850567083        10.698916484
       105          105.000000         3.840286394       299.756540361      -992.798526770      -988.908293564        10.727289036
       106          106.000000         3.779633927       295.022264853      -992.697826401      -988.868280463        10.657673879
       107          107.000000         3.768409061       294.146099182      -992.705347874      -988.887072939        10.165851224
       108          108.000000         3.738286193       291.794835361      -992.681188103      -988.893097488        10.125627570
       109          109.000000         3.705619965       289.245047485      -992.599174975      -988.843832582        10.112138996
       110          110.000000         3.902616877       304.621794675      -992.858741705      -988.906508769        10.694608402
       111          111.000000         3.806179438       297.094295386      -992.722674749      -988.866983459        10.139414938
       112          112.000000         3.704252717       289.138325900      -992.595263063      -988.841608361        10.132686071
       113          113.000000         3.832169157       299.122943110      -992.758168092      -988.876730172        10.160854124
       114          114.000000         3.827645094       298.769813870      -992.710708492      -988.833936900        10.102272807
       115          115.000000         3.918477934       305.859841798      -992.836305179      -988.868846857        10.167585419
       116          116.000000         3.857892899       301.130829779      -992.768149081      -988.861412611        10.114006972
       117          117.000000         3.723871240       290.669664947      -992.583347389      -988.810766249        10.153076755
       118          118.000000         3.906176134       304.899615212      -992.821488274      -988.866754281        10.157794120
       119          119.000000         3.905722991       304.864244773      -992.795677647      -988.841545985        10.098989062
       120          120.000000         3.844178928       300.060375116      -992.719597154      -988.827148130        10.629370935
       121          121.000000         3.858134176       301.149662828      -992.754929322      -988.848662271        10.640458548
       122          122.000000         3.769051313       294.196230732      -992.614915086      -988.797867959        10.098982234
       123          123.000000         3.906746664       304.944148367      -992.795083215      -988.840489582        10.138150254
       124          124.000000         3.887210714       303.419254622      -992.791066146      -988.856152506        10.163167013
       125          125.000000         3.700680902       288.859525136      -992.552589823      -988.804343290        10.094652275
       126          126.000000         3.789729326       295.810269075      -992.687662942      -988.850526559        10.101050032
       127          127.000000         3.789189593       295.768139825      -992.659203832      -988.822782475        10.160761705
       128          128.000000         3.820382839       298.202952907      -992.705552810      -988.838126496        10.124432907
       129          129.000000         3.831463180       299.067837482      -992.738724629      -988.860414896        10.111123940
       130          130.000000         3.663464718       285.954586945      -992.492065656      -988.781956426        10.113128697
       131          131.000000         3.784323802       295.388336696      -992.656274792      -988.825538239        10.091419432
       132          132.000000         3.837676446       299.552818825      -992.718600435      -988.834765075        10.108130297
       133          133.000000         3.717070697       290.138843280      -992.575845751      -988.812876580        10.082333300
       134          134.000000         3.748108098       292.561491730      -992.654315904      -988.860591404        10.097140821
       135          135.000000         3.694980558       288.414580357      -992.571766215      -988.831475077        10.147633307
       136          136.000000         3.785872928       295.509254945      -992.642173589      -988.811327623        10.092722593
       137          137.000000         3.859367461       301.245927865      -992.732811684      -988.828833151        10.149567313
       138          138.000000         3.661868119       285.829963151      -992.473637035      -988.767522608        10.094928436
       139          139.000000         3.713340312       289.847665185      -992.557759545      -988.800565288        10.127865767
       140          140.000000         3.788974683       295.751364839      -992.647188377      -988.814789993        10.147750596
       141          141.000000         3.792833143       296.052539904      -992.639234957      -988.803432217        10.130720174
       142          142.000000         3.867526185       301.882763409      -992.783151628      -988.873130275        10.130860962
       143          143.000000         3.720578264       290.412629139      -992.584681223      -988.822085810        10.102531640
       144          144.000000         3.778182569       294.908978005      -992.654592050      -988.834891568        10.148916982
       145          145.000000         3.935678640       307.202456262      -992.857575840      -988.880911871        10.101054074
       146          146.000000         3.813353994       297.654310929      -992.683211631      -988.829404430        10.122876681
       147          147.000000         3.804276909       296.945792008      -992.707407299      -988.863212131        10.165500583
       148          148.000000         3.764742130       293.859874099      -992.655447963      -988.851336524        10.100514894
       149          149.000000         3.784901346       295.433417312      -992.641740939      -988.818041251        10.128147816
       150          150.000000         3.941945327       307.691607388      -992.849569094      -988.869428220        10.131203283
       151          151.000000         3.807994999       297.236010365      -992.668878990      -988.823290787        10.120044086
       152          152.000000         3.779875361       295.041110157      -992.628233179      -988.811369020        10.133372428
       153          153.000000         3.877508312       302.661926057      -992.757420885      -988.843554109        10.144006228
       154          154.000000         3.842368287       299.919044101      -992.673683559      -988.795599942        10.615615794
       155          155.000000         3.913379768       305.461900494      -992.781472518      -988.833032601        10.650794523
       156          156.000000         3.816107322       297.869224096      -992.664130083      -988.813617339        10.122324336
       157          157.000000         3.771759028       294.407583524      -992.597133911      -988.791627915        10.114346981
       158          158.000000         3.950922102       308.392296561      -992.827095485      -988.843117743        10.180765126
       159          159.000000         3.880313477       302.880885423      -992.713997095      -988.801326157        10.134779213
       160          160.000000         3.859812436       301.280660697      -992.697806762      -988.806330852        10.121516572
       161          161.000000         3.891518826       303.755527635      -992.722295826      -988.799816756        10.170364406
       162          162.000000         3.864062205       301.612379731      -992.665034193      -988.770720179        10.698250910
       163          163.000000         4.021030581       313.864668383      -992.872534644      -988.821976964        10.713360835
       164          164.000000         3.946565553       308.052242722      -992.778467908      -988.803090316        10.125530925
       165          165.000000         3.824259505       298.505549060      -992.626477153      -988.774096289        10.133202704
       166          166.000000         3.935881737       307.218309183      -992.787925927      -988.824623657        10.136196576
       167          167.000000         3.903611071       304.699397258      -992.724558132      -988.794232695        10.161867352
       168          168.000000         3.926138387       306.457784401      -992.742322867      -988.790175127        10.108248981
       169          169.000000         3.898815507       304.325075755      -992.728190264      -988.804067817        10.643876607
       170          170.000000         3.801891067       296.759563227      -992.580507329      -988.754004419        10.664228387
       171          171.000000         3.992162441       311.611343266      -992.822042911      -988.805986995        10.177646901
       172          172.000000         4.000841329       312.288780648      -992.832713967      -988.808703714        10.173183223
       173          173.000000         3.898315838       304.286073729      -992.698130084      -988.777345534        10.680513116
       174          174.000000         3.908721129       305.098266804      -992.745314849      -988.814816358        10.635854909
       175          175.000000         3.822986735       298.406201999      -992.620484885      -988.776407991        10.690252610
       176          176.000000         3.935528047       307.190701589      -992.765173745      -988.809257794        10.140139041
       177          177.000000         3.951840378       308.463973296      -992.795285986      -988.823769024        10.687518563
       178          178.000000         3.789585391       295.799034113      -992.581622820      -988.773055137        10.653507879
       179          179.000000         3.888758259       303.540049459      -992.723312747      -988.816278708        10.178514829
       180          180.000000         3.915717351       305.644362299      -992.733220673      -988.799952309        10.156029496
       181          181.000000         3.921554779       306.100007294      -992.745155552      -988.806777543        10.655106848
       182          182.000000         3.946971083       308.083896665      -992.797424506      -988.834358585        10.647947863
       183          183.000000         3.778137109       294.905429609      -992.572971461      -988.779452516        10.179230427
       184          184.000000         3.851036937       300.595682350      -992.678584844      -988.812891162        10.132574847
       185          185.000000         3.930022016       306.760924109      -992.771890558      -988.827964101        10.131473113
       186          186.000000         3.824683705       298.538660281      -992.632466683      -988.794629984        10.160545064
       187          187.000000         3.856089581       300.990070358      -992.685427454      -988.816944066        10.674262453
       188          188.000000         3.779054879       294.977066845      -992.571087144      -988.780407953        10.667013580
       189          189.000000         3.797831250       296.442671092      -992.589119798      -988.780453191        10.149313061
       190          190.000000         3.883406810       303.122337959      -992.724875533      -988.831456247        10.229535004
       191          191.000000         3.730892250       291.217695380      -992.519105374      -988.779029887        10.670958687
       192          192.000000         3.777531553       294.858162404      -992.592207873      -988.806343941        10.675964471
       193          193.000000         3.843445211       300.003104269      -992.670529135      -988.819644395        10.697011689
       194          194.000000         3.804625237       296.972980980      -992.600135626      -988.788986474        10.720116079
       195          195.000000         3.882110710       303.021169872      -992.719262343      -988.831570327        10.700116409
       196          196.000000         3.771104054       294.356458959      -992.576934386      -988.801201977        10.180440253
       197          197.000000         3.772803398       294.489102576      -992.573825848      -988.797362537        10.713921428
       198          198.000000         3.906829811       304.950638457      -992.750943829      -988.841469209        10.679581294
       199          199.000000         3.807625143       297.207140988      -992.602208073      -988.792969453        10.699848676
       200          200.000000         3.842477330       299.927555519      -992.664195474      -988.821149868        10.689143864
       201          201.000000         3.859163348       301.229995651      -992.684468067      -988.825808262        10.809308810
       202          202.000000         3.846254593       300.222392734      -992.640848424      -988.796186368        10.714003198
       203          203.000000         3.986329742       311.156067432      -992.832555458      -988.848940259        10.726901926
       204          204.000000         3.874147507       302.399595812      -992.680086239      -988.809775903        10.708498335
       205          205.000000         3.839035606       299.658909084      -992.633988121      -988.799902051        10.686286181
       206          206.000000         3.944410247       307.884008636      -992.777048629      -988.838726896        10.732759215
       207          207.000000         3.892955928       303.867701791      -992.681987915      -988.796269892        10.682497250
       208          208.000000         3.955812244       308.774000402      -992.775546535      -988.828129242        10.710006122
       209          209.000000         3.900277356       304.439181515      -992.707229344      -988.816503932        10.710496539
       210          210.000000         3.826936687       298.714518538      -992.595438000      -988.779198558        10.716564922
       211          211.000000         3.973574420       310.160440797      -992.793104306      -988.831399566        10.731865326
       212          212.000000         3.909605023       305.167259796      -992.683784242      -988.787230925        10.194529427
       213          213.000000         3.867975311       301.917820249      -992.638624628      -988.784871209        10.750137184
       214          214.000000         3.908149158       305.053621122      -992.716136888      -988.823390406        10.694297763
       215          215.000000         3.851173407       300.606334607      -992.603655519      -988.769070038        10.709048435
       216          216.000000         3.991020726       311.522225775      -992.777123743      -988.803900004        10.699422663
       217          217.000000         3.974407119       310.225437765      -992.757779876      -988.802389017        10.767898291
       218          218.000000         3.866395689       301.794521660      -992.625858807      -988.779672230        10.701180717
       219          219.000000         3.975706212       310.326839552      -992.790204239      -988.835906763        10.740684429
       220          220.000000         3.936518538       307.268015145      -992.713743818      -988.799837652        10.713653155
       221          221.000000         3.957544042       308.909177236      -992.735297797      -988.801562619        10.189653751
       222          222.000000         3.975585055       310.317382532      -992.779903331      -988.829322115        10.209258717
       223          223.000000         3.859474674       301.254296419      -992.598703920      -988.765405241        10.220834982
       224          224.000000         3.989965920       311.439892124      -992.786948140      -988.824338188        10.693417093
       225          225.000000         4.007099177       312.777241842      -992.813359450      -988.834806114        10.731178032
       226          226.000000         3.922701047       306.189480130      -992.690741960      -988.797750184        10.711359980
       227          227.000000         3.977233354       310.446041747      -992.782068066      -988.835697377        10.825518688