#     Step Nr.          Time[fs]        Kin.[a.u.]          Temp[K]            Pot.[a.u.]        Cons Qty[a.u.]        UsedTime[s]
         0            0.000000         3.843405441       300.000000000     -1423.440386258     -1419.596505794         0.000000000
         1            1.000000         3.683989051       287.556629707     -1423.231755631     -1419.546458536        45.566894002
         2            2.000000         3.644034627       284.437956082     -1423.162179484     -1419.516053384        13.013477996
         3            3.000000         3.728813186       291.055412380     -1423.239943895     -1419.508286345        13.045620319
         4            4.000000         3.715632929       290.026617225     -1423.164624563     -1419.445411471        13.002385557
         5            5.000000         3.806424196       297.113400145     -1423.270068898     -1419.459343511        13.052507382
         6            6.000000         3.753636367       292.993005135     -1423.105473564     -1419.346821970        12.318442654
         7            7.000000         3.774331947       294.608414652     -1423.180734503     -1419.400692027        13.008653373
         8            8.000000         3.969603402       309.850479921     -1423.426113745     -1419.450093897        13.055614732
         9            9.000000         3.881878058       303.003010027     -1423.317825627     -1419.428796769        13.015305862
        10           10.000000         3.789791774       295.815143475     -1423.263012543     -1419.465344629        13.047196273
        11           11.000000         3.753486936       292.981341143     -1423.245828662     -1419.483761322        13.021058228
        12           12.000000         3.749934078       292.704020096     -1423.221501180     -1419.462302708        13.015433453
        13           13.000000         3.976456300       310.385388247     -1423.491604449     -1419.505192176        13.066566356
        14           14.000000         3.945030682       307.932437173     -1423.405251698     -1419.449535005        12.369239807
        15           15.000000         3.837036227       299.502846058     -1423.271998900     -1419.423540544        12.338198956
        16           16.000000         3.933323323       307.018610147     -1423.413606842     -1419.468122115        12.366444491
        17           17.000000         3.876027590       302.546347202     -1423.325516699     -1419.436570048        12.333976045
        18           18.000000         3.834578343       299.310993989     -1423.310509091     -1419.462256276        13.028546177
        19           19.000000         3.724711578       290.735258222     -1423.199299126     -1419.460175477        13.056133177
        20           20.000000         3.623736831       282.853595787     -1423.039846805     -1419.401002909        13.045733761
        21           21.000000         3.858939646       301.212534407     -1423.363916928     -1419.489196982        13.048207346
        22           22.000000         3.909542747       305.162398800     -1423.384698872     -1419.458677803        13.038915187
        23           23.000000         3.813781051       297.687645196     -1423.262586162     -1419.431622789        13.043733902
        24           24.000000         3.818263825       298.037551567     -1423.308004277     -1419.471865361        13.007515609
        25           25.000000         3.776690531       294.792515775     -1423.229466716     -1419.434217297        13.033218056
        26           26.000000         3.906464002       304.922084972     -1423.392286150     -1419.466580072        13.024893705
        27           27.000000         3.891520475       303.755656356     -1423.381145534     -1419.469679919        13.090719916
        28           28.000000         3.723418679       290.634339956     -1423.159985135     -1419.415928407        13.036643911
        29           29.000000         3.861121824       301.382866045     -1423.322421973     -1419.439987582        12.332691196
        30           30.000000         3.951768733       308.458380998     -1423.372492498     -1419.398713261        12.398400832
        31           31.000000         3.951457295       308.434071467     -1423.350475150     -1419.376280768        12.339213520
        32           32.000000         3.907141384       304.974958545     -1423.349193436     -1419.418570833        12.337363079
        33           33.000000         3.741724791       292.063237742     -1423.116274520     -1419.350333794        12.410200015
        34           34.000000         3.884253861       303.188455175     -1423.315453337     -1419.406262850        12.358437832
        35           35.000000         4.013218795       313.254913386     -1423.479643018     -1419.440732294        13.043157257
        36           36.000000         3.893989980       303.948415528     -1423.289518700     -1419.369051345        13.058955494
        37           37.000000         3.889435682       303.592926203     -1423.306573540     -1419.389873230        13.036018275
        38           38.000000         3.852219450       300.687984292     -1423.248646517     -1419.368370073        13.073619992
        39           39.000000         3.915914729       305.659768835     -1423.317320405     -1419.372548326        13.049269330
        40           40.000000         3.966056987       309.573661759     -1423.414800634     -1419.419058715        13.044778850
        41           41.000000         3.734667699       291.512390999     -1423.121798274     -1419.356618647        13.093715321
        42           42.000000         3.764587820       293.847829253     -1423.143141778     -1419.347250553        13.045586977
        43           43.000000         3.931379461       306.866880474     -1423.337471641     -1419.373987885        13.089062847
        44           44.000000         3.956919110       308.860397686     -1423.379259531     -1419.389399761        13.040519644
        45           45.000000         3.979883644       310.652912201     -1423.390682925     -1419.376992674        13.066218372
        46           46.000000         3.818882478       298.085841031     -1423.186599098     -1419.333035099        13.067768775
        47           47.000000         3.823637220       298.456976080     -1423.202070005     -1419.342893490        13.030497860
        48           48.000000         3.969299607       309.826767000     -1423.458770480     -1419.453056194        13.051520370
        49           49.000000         3.823724792       298.463811576     -1423.275955050     -1419.414921034        13.744343668
        50           50.000000         3.764668667       293.854139834     -1423.232319685     -1419.429471311        13.017863683
        51           51.000000         3.783936964       295.358141763     -1423.282637443     -1419.459667328        13.765655328
        52           52.000000         3.853207684       300.765121692     -1423.362086472     -1419.468991668        13.740073983
        53           53.000000         4.018450209       313.663255399     -1423.568383192     -1419.509159967        13.067763653
        54           54.000000         3.863777842       301.590183546     -1423.376871541     -1419.471404958        13.041714601
        55           55.000000         3.759015122       293.412847998     -1423.255482622     -1419.453886640        13.078594487
        56           56.000000         3.880158370       302.868778417     -1423.423310051     -1419.499686844        13.078419201
        57           57.000000         3.885056154       303.251078747     -1423.391211796     -1419.461786593        13.067034367
        58           58.000000         3.924912344       306.362084623     -1423.427452341     -1419.457250995        13.048637960
        59           59.000000         3.856301624       301.006621554     -1423.336371074     -1419.433848998        13.079011161
        60           60.000000         3.818764049       298.076596953     -1423.272526955     -1419.406619180        13.029971644
        61           61.000000         4.019283577       313.728304603     -1423.517788906     -1419.450416395        12.388635539
        62           62.000000         3.967246884       309.666540077     -1423.405377221     -1419.389047257        12.389603443
        63           63.000000         3.864600365       301.654386259     -1423.286188724     -1419.371505238        13.057698000
        64           64.000000         3.908396717       305.072944555     -1423.350912099     -1419.391430489        12.348086871
        65           65.000000         3.929360926       306.709322202     -1423.363086294     -1419.381616500        12.371302895
        66           66.000000         4.096086110       319.723186044     -1423.585536949     -1419.436270341        12.359183863
        67           67.000000         4.037568837       315.155574831     -1423.523685001     -1419.431801135        12.390624356
        68           68.000000         3.854812559       300.890391444     -1423.284309893     -1419.374043616        13.019627899
        69           69.000000         3.959400890       309.054114901     -1423.434988553     -1419.418995617        13.062908050
        70           70.000000         3.953767606       308.614404570     -1423.414548142     -1419.403013682        13.050091017
        71           71.000000         3.912523846       305.395090812     -1423.362347827     -1419.390866621        12.342258941
        72           72.000000         3.868111670       301.928463866     -1423.337120306     -1419.408858899        12.369556516
        73           73.000000         3.768505066       294.153592950     -1423.193681494     -1419.363852016        12.340226989
        74           74.000000         3.938203747       307.399555475     -1423.474212344     -1419.473506285        13.026466947
        75           75.000000         3.984192020       310.989205869     -1423.568581055     -1419.520658859        13.736538492
        76           76.000000         3.841412744       299.844458426     -1423.330701531     -1419.424321475        13.040275883
        77           77.000000         3.835362824       299.372227286     -1423.357875059     -1419.456327839        13.017607786
        78           78.000000         3.790286067       295.853725946     -1423.280368006     -1419.422690854        13.062682897
        79           79.000000         3.869835312       302.063004105     -1423.390523968     -1419.452092776        13.046594787
        80           80.000000         3.906301131       304.909371951     -1423.442925778     -1419.466801424        13.009118848
        81           81.000000         3.739202950       291.866393505     -1423.227808220     -1419.417567962        13.047926467
        82           82.000000         3.824239587       298.503994299     -1423.336992844     -1419.440529474        12.371026430
        83           83.000000         3.892325445       303.818488892     -1423.417770251     -1419.452015106        13.022043590
        84           84.000000         3.842323702       299.915564029     -1423.363554908     -1419.446586371        13.000017062
        85           85.000000         3.852764099       300.730497319     -1423.416416197     -1419.487797635        12.990088284
        86           86.000000         3.737888751       291.763812674     -1423.187702093     -1419.372767585        13.003617913
        87           87.000000         3.820723506       298.229543907     -1423.296883414     -1419.397944674        13.001283456
        88           88.000000         3.945990899       308.007387643     -1423.457938230     -1419.432534824        12.990221076
        89           89.000000         3.815652938       297.833756796     -1423.281880861     -1419.385605800        12.332002595
        90           90.000000         3.824371783       298.514312958     -1423.301400085     -1419.395218751        12.339137085
        91           91.000000         3.843190733       299.983240801     -1423.305144330     -1419.378957199        12.308552142
        92           92.000000         3.861911766       301.444525548     -1423.204266875     -1419.258167545        12.342994314
        93           93.000000         3.942408056       307.727726024     -1423.450740945     -1419.422935058        12.987633418
        94           94.000000         3.791409931       295.941450018     -1423.263742392     -1419.385722961        13.011337884
        95           95.000000         3.799130519       296.544086530     -1423.275522785     -1419.388601708        12.988356095
        96           96.000000         3.943945686       307.847746979     -1423.486634284     -1419.453700671        12.301251985
        97           97.000000         3.903123574       304.661345267     -1423.395050202     -1419.401711644        12.336808518
        98           98.000000         3.900246994       304.436811620     -1423.416330829     -1419.424637819        12.303380266
        99           99.000000         3.808968700       297.312013372     -1423.324552014     -1419.422914368        12.340317961
       100          100.000000         3.819688652       298.148767533     -1423.322458886     -1419.408898002        12.348034069
       101          101.000000         3.997894561       312.058768374     -1423.545990484     -1419.452993860        12.319238409
       102          102.000000         3.907166851       304.976946370     -1423.401992719     -1419.398458435        12.335860636
       103          103.000000         3.865808053       301.748653233     -1423.354028764     -1419.390597982        12.314495552
       104          104.000000         3.928296948       306.626272544     -1423.438728551     -1419.411546284        12.321488757
       105          105.000000         3.929007291       306.681718933     -1423.414823732     -1419.385646080        12.376952779
       106          106.000000         4.022445468       313.975108470     -1423.513075271     -1419.389142640        12.323159728
       107          107.000000         3.903845043       304.717660062     -1423.334698300     -1419.328026226        12.338016633
       108          108.000000         3.799061126       296.538669978     -1423.202909690     -1419.299711119        12.332558528
       109          109.000000         3.959591196       309.068969392     -1423.411710368     -1419.346668557        12.349489629
       110          110.000000         3.964550188       309.456047355     -1423.391381562     -1419.320024465        12.354908336
       111          111.000000         3.944019477       307.853506777     -1423.374405815     -1419.322206656        12.338538736
       112          112.000000         3.899541723       304.381761106     -1423.339405473     -1419.330308053        12.329337884
       113          113.000000         3.824772532       298.545593764     -1423.218105262     -1419.282417011        12.374709632
       114          114.000000         3.977027070       310.429940116     -1423.428726044     -1419.339413516        12.308356859
       115          115.000000         3.954702606       308.687386714     -1423.404347659     -1419.335950352        12.360597041
       116          116.000000         3.847808034       300.343647807     -1423.290456070     -1419.327553209        12.328814283
       117          117.000000         3.924154930       306.302964127     -1423.398177128     -1419.357534080        12.332732093
       118          118.000000         3.921940366       306.130104615     -1423.373889765     -1419.334047506        13.000839431
       119          119.000000         3.988676717       311.339262351     -1423.459712597     -1419.351698322        13.037367333
       120          120.000000         3.950485904       308.358248800     -1423.437169835     -1419.365886431        13.005751655
       121          121.000000         3.794363425       296.171987319     -1423.247200457     -1419.330605069        13.021877576
       122          122.000000         3.911852736       305.342706835     -1423.404371200     -1419.368870884        12.994861651
       123          123.000000         3.947945951       308.159990767     -1423.425076889     -1419.352036747        13.036759820
       124          124.000000         3.912420822       305.387049159     -1423.356316382     -1419.317344709        13.002612572
       125          125.000000         3.949608643       308.289773489     -1423.483547300     -1419.405924854        13.016857024
       126          126.000000         3.878622803       302.748918540     -1423.376787242     -1419.368685524        13.056570284
       127          127.000000         3.972301878       310.061111606     -1423.469471126     -1419.366220407        12.996255286
       128          128.000000         3.994378892       311.784350051     -1423.458742598     -1419.331909891        13.030368671
       129          129.000000         3.830795112       299.015690972     -1423.251197654     -1419.286456311        12.363747042
       130          130.000000         3.862475608       301.488536667     -1423.322144394     -1419.324264994        12.338330224
       131          131.000000         3.867866718       301.909343942     -1423.335934860     -1419.331209031        12.328588072
       132          132.000000         3.889184525       303.573321980     -1423.364046569     -1419.336550098        12.323236126
       133          133.000000         3.928350793       306.630475483     -1423.424501057     -1419.356377711        12.319346998
       134          134.000000         3.796233669       296.317970619     -1423.224837083     -1419.287388397        12.341712978
       135          135.000000         3.864071785       301.613127527     -1423.343078148     -1419.336379183        12.369233701
       136          136.000000         3.951899238       308.468567635     -1423.432674725     -1419.336717052        12.979913048
       137          137.000000         3.863857774       301.596422760     -1423.264806237     -1419.255455968        13.030200653
       138          138.000000         3.869013584       301.998863448     -1423.303083620     -1419.287167235        12.313315570
       139          139.000000         3.821048007       298.254873060     -1423.250428144     -1419.281086240        12.339483771
       140          140.000000         3.871967979       302.229471111     -1423.289680884     -1419.268044905        12.332336925
       141          141.000000         3.981773791       310.800449076     -1423.487062634     -1419.354226714        12.334350299
       142          142.000000         3.840277961       299.755882108     -1423.303078506     -1419.310344537        12.335441831
       143          143.000000         3.824236663       298.503766073     -1423.231422770     -1419.253378230        12.327343706
       144          144.000000         3.884179503       303.182651068     -1423.318586898     -1419.279258599        12.324502975
       145          145.000000         3.887788516       303.464355429     -1423.373824913     -1419.329545845        12.352498963
       146          146.000000         3.965724496       309.547708884     -1423.512220661     -1419.388656346        12.329525746
       147          147.000000         3.863418779       301.562156598     -1423.383820052     -1419.361213900        12.322364666
       148          148.000000         3.850138751       300.525573710     -1423.344890012     -1419.334247919        12.296257362
       149          149.000000         3.961699547       309.233538395     -1423.531808419     -1419.408286637        12.302549031
       150          150.000000         3.866758774       301.822862567     -1423.380143674     -1419.350240798        12.294038955
       151          151.000000         3.839408096       299.687984102     -1423.407711334     -1419.403870260        12.307227295
       152          152.000000         3.814195341       297.719982938     -1423.374271600     -1419.394382657        12.274599183
       153          153.000000         3.798958318       296.530645232     -1423.311039645     -1419.345157965        12.318419721
       154          154.000000         3.926133931       306.457436599     -1423.480755027     -1419.386474209        12.293307953
       155          155.000000         3.848665363       300.410567294     -1423.382489977     -1419.364453795        12.335743804
       156          156.000000         3.797861367       296.445021891     -1423.325000913     -1419.356582214        12.327921342
       157          157.000000         3.882808332       303.075623249     -1423.436692528     -1419.382159846        12.306436114
       158          158.000000         3.844065668       300.051534479     -1423.371128418     -1419.354178564        12.325555403
       159          159.000000         3.858040952       301.142386189     -1423.418153107     -1419.386089490        12.324960407
       160          160.000000         3.790942079       295.904931467     -1423.347671242     -1419.381593842        12.334815901
       161          161.000000         3.729081316       291.076341498     -1423.260560959     -1419.355279020        12.308949247
       162          162.000000         3.880313658       302.880899551     -1423.458835893     -1419.401279569        12.297979593
       163          163.000000         3.861360331       301.401482891     -1423.403747288     -1419.364099303        12.332764529
       164          164.000000         3.808679996       297.289478348     -1423.345686914     -1419.357699444        12.328839064
       165          165.000000         3.835249268       299.363363562     -1423.396286747     -1419.380736708        12.316310495
       166          166.000000         3.807434210       297.192237564     -1423.358105812     -1419.369398487        12.310934518
       167          167.000000         3.904565518       304.773897331     -1423.500150248     -1419.413352404        12.326149032
       168          168.000000         3.872047048       302.235642896     -1423.463612812     -1419.408374882        12.287748914
       169          169.000000         3.770465804       294.306639881     -1423.322545018     -1419.367959793        12.295099534
       170          170.000000         3.863986486       301.606469413     -1423.379499029     -1419.330492608        12.283811916
       171          171.000000         3.867666181       301.893690903     -1423.355619775     -1419.302036939        13.026843235
       172          172.000000         3.887898961       303.472976277     -1423.380253260     -1419.305549994        12.297727093
       173          173.000000         3.891082190       303.721445680     -1423.368068499     -1419.289300229        12.308309309
       174          174.000000         3.787908188       295.668118738     -1423.228318736     -1419.251863972        12.316300873
       175          175.000000         3.898632523       304.310792804     -1423.333358909     -1419.245341006        12.326800890
       176          176.000000         3.925163794       306.381711771     -1423.353506672     -1419.238111308        12.323081829
       177          177.000000         3.827308210       298.743518117     -1423.280126327     -1419.261751302        12.295876164
       178          178.000000         3.850744402       300.572848238     -1423.336022725     -1419.293400867        12.344601817
       179          179.000000         3.806319162       297.105201638     -1423.236301647     -1419.237312843        12.343765572
       180          180.000000         3.854329868       300.852714638     -1423.264930360     -1419.217159192        12.986882858
       181          181.000000         3.880050461       302.860355467     -1423.309521275     -1419.235264374        13.022637658
       182          182.000000         3.750552133       292.752262830     -1423.141152975     -1419.195651228        12.364129227
       183          183.000000         3.809920256       297.386287826     -1423.221805366     -1419.216227625        12.340915393
       184          184.000000         3.859589592       301.263266462     -1423.270610937     -1419.214667095        12.310353864
       185          185.000000         3.835548890       299.386750812     -1423.271124612     -1419.238535108        12.978669275
       186          186.000000         3.849168597       300.449847591     -1423.329510373     -1419.282630267        13.007230721
       187          187.000000         3.761184921       293.582213336     -1423.201933014     -1419.242386970        12.334852364
       188          188.000000         3.823505919       298.446727294     -1423.321689839     -1419.299201022        12.327282019
       189          189.000000         3.911465541       305.312483997     -1423.405489967     -1419.294423586        13.025722597
       190          190.000000         3.828215768       298.814358271     -1423.287655329     -1419.259223616        12.962896373
       191          191.000000         3.838288193       299.600569182     -1423.381680493     -1419.342580158        12.306600336
       192          192.000000         3.814937774       297.777934115     -1423.345563642     -1419.329232442        12.972842500
       193          193.000000         3.831060017       299.036368295     -1423.379408660     -1419.346390889        12.994029831
       194          194.000000         3.913327528       305.457822823     -1423.487970074     -1419.372125546        13.004749645
       195          195.000000         3.825010538       298.564171507     -1423.356878582     -1419.328793778        12.314648706
       196          196.000000         3.848837617       300.424012688     -1423.386935247     -1419.334482745        12.293836154
       197          197.000000         3.929416177       306.713634830     -1423.480358657     -1419.346788065        12.337491553
       198          198.000000         3.877786002       302.683601382     -1423.365100790     -1419.282615661        12.279606123
       199          199.000000         3.891711801       303.770590480     -1423.401139111     -1419.304188365        12.301403277
       200          200.000000         3.826178756       298.655357658     -1423.321087130     -1419.289136175        12.334409472
       201          201.000000         3.822206966       298.345336542     -1423.310420143     -1419.281924847        12.434862211
       202          202.000000         3.932156369       306.927522645     -1423.445026119     -1419.306069788        12.328185212
       203          203.000000         3.858440813       301.173597654     -1423.268900513     -1419.203142523        12.327921566
       204          204.000000         3.860241945       301.314186348     -1423.276107024     -1419.208040549        12.299072579
       205          205.000000         3.921019265       306.058207365     -1423.349971904     -1419.220621646        12.326961733
       206          206.000000         3.917276331       305.766049693     -1423.250478195     -1419.124356421        12.305443123
       207          207.000000         3.985596212       311.098811176     -1423.348302761     -1419.153335379        12.293909084
       208          208.000000         3.906453207       304.921242327     -1423.280218702     -1419.163854136        12.265234854
       209          209.000000         3.856810523       301.046344105     -1423.201622501     -1419.134365869        12.286090419
       210          210.000000         3.964853762       309.479743076     -1423.359599476     -1419.183764189        12.304244872
       211          211.000000         3.949243295       308.261255940     -1423.312899942     -1419.152121793        12.272470653
       212          212.000000         3.937417826       307.338209785     -1423.317663212     -1419.168147644        12.308136743
       213          213.000000         3.899284378       304.361673827     -1423.292550668     -1419.180601106        12.293617018
       214          214.000000         3.853274886       300.770367176     -1423.226241260     -1419.159739024        12.301564436
       215          215.000000         3.954292805       308.655399393     -1423.375562139     -1419.207480292        12.321504090
       216          216.000000         3.915615996       305.636450954     -1423.290124995     -1419.160144899        12.315817267
       217          217.000000         3.848447124       300.393532493     -1423.235431945     -1419.172049657        12.273572005
       218          218.000000         3.896750155       304.163863116     -1423.310674102     -1419.198425188        12.323747303
       219          219.000000         3.883527063       303.131724378     -1423.292497460     -1419.192906122        12.285867486
       220          220.000000         3.938226790       307.401354062     -1423.368267361     -1419.213407698        12.313927066
       221          221.000000         3.897212315       304.199937353     -1423.298075385     -1419.183653543        12.288194146
       222          222.000000         3.778059890       294.899402192     -1423.149409814     -1419.153576288        12.312012091
       223          223.000000         3.851103458       300.600874643     -1423.257262622     -1419.187842363        12.315855037
       224          224.000000         3.853176102       300.762656480     -1423.269248638     -1419.197216450        12.261097252
       225          225.000000         3.840389909       299.764620293     -1423.267945961     -1419.208168637        12.284990005
       226          226.000000         3.879299641       302.801749661     -1423.330426124     -1419.231213853        12.283924744
       227          227.000000         3.839430661       299.689745436     -1423.325049968     -1419.265184699        12.315020218