#     Step Nr.          Time[fs]        Kin.[a.u.]          Temp[K]            Pot.[a.u.]        Cons Qty[a.u.]        UsedTime[s]
         0            0.000000         3.850530776       300.000000000     -1297.154316236     -1293.303310438         0.000000000
         1            1.000000         3.388211691       263.980102070     -1296.638426299     -1293.248945753        52.725652665
         2            2.000000         4.305818687       335.472089730     -1297.838819413     -1293.530946713        12.690184291
         3            3.000000         4.271428428       332.792698689     -1297.662228976     -1293.387796341        12.668640397
         4            4.000000         4.232991243       329.798006213     -1297.702675015     -1293.465644511        12.679268241
         5            5.000000         3.788993394       295.205540294     -1297.236418726     -1293.442340926        12.055484995
         6            6.000000         3.438777164       267.919725666     -1296.676651754     -1293.231856888        12.068340238
         7            7.000000         4.507503815       351.185647685     -1298.070156477     -1293.555656989        12.055400573
         8            8.000000         4.239826786       330.330572537     -1297.723379844     -1293.475371420        12.085191630
         9            9.000000         3.519785965       274.231229692     -1296.834840028     -1293.305752749        12.053536415
        10           10.000000         3.781548869       294.625527457     -1297.269689895     -1293.477825970        12.113312848
        11           11.000000         3.791664408       295.413642559     -1297.108353258     -1293.305341925        12.086039446
        12           12.000000         4.414736275       343.958004613     -1297.919465983     -1293.492260113        12.074577514
        13           13.000000         4.125092260       321.391452240     -1297.643385125     -1293.504557384        12.068102777
        14           14.000000         3.192781469       248.753872277     -1296.430272503     -1293.222632492        12.080885228
        15           15.000000         3.979014914       310.010370956     -1297.477791452     -1293.482902854        12.096001621
        16           16.000000         4.243656456       330.628947235     -1297.686048512     -1293.425339592        12.729213178
        17           17.000000         4.021604820       313.328607471     -1297.384301682     -1293.344389783        12.074571013
        18           18.000000         3.928916344       306.107124378     -1297.382649470     -1293.434181095        12.094569124
        19           19.000000         3.402569892       265.098768696     -1296.605052004     -1293.181777673        12.088791840
        20           20.000000         4.300340344       335.045264741     -1297.720152827     -1293.397953004        12.059069417
        21           21.000000         4.610557391       359.214689546     -1298.114852015     -1293.481011983        12.064901903
        22           22.000000         3.635817539       283.271404696     -1296.834300786     -1293.173759541        12.075980689
        23           23.000000         3.852864294       300.181807485     -1297.224729411     -1293.345845796        12.080034986
        24           24.000000         3.970882021       309.376726358     -1297.228177311     -1293.229926089        12.060134526
        25           25.000000         4.331223569       337.451418089     -1297.584065692     -1293.224009601        12.045890823
        26           26.000000         4.539053975       353.643762825     -1297.950638412     -1293.381084782        12.040109307
        27           27.000000         3.482057317       271.291740244     -1296.547046355     -1293.032876034        12.042002939
        28           28.000000         3.955375297       308.168576800     -1297.167726189     -1293.178778805        12.033585455
        29           29.000000         4.644372743       361.849288804     -1297.952713861     -1293.273053963        12.063362002
        30           30.000000         4.236124031       330.042085955     -1297.351283843     -1293.077958388        12.047708858
        31           31.000000         4.200399976       327.258777109     -1297.465783181     -1293.226272503        12.042794809
        32           32.000000         3.647668007       284.194690510     -1296.702249246     -1293.013642138        12.678721994
        33           33.000000         4.102509925       319.632032325     -1297.187621436     -1293.042388460        12.706323951
        34           34.000000         4.912075843       382.706395173     -1298.234220091     -1293.277281614        12.676215608
        35           35.000000         3.958782181       308.434011686     -1296.951043798     -1292.945115652        12.749523800
        36           36.000000         3.864103786       301.057491329     -1296.929579336     -1293.016278819        12.060594127
        37           37.000000         4.217602089       328.599016717     -1297.306190761     -1293.037269309        12.059460223
        38           38.000000         4.303778714       335.313152772     -1297.257223060     -1292.899825947        12.725411985
        39           39.000000         4.744498527       369.650222474     -1297.883415533     -1293.082754260        12.172101669
        40           40.000000         3.830395262       298.431215161     -1296.729701225     -1292.840591155        12.056287851
        41           41.000000         3.729411678       290.563449176     -1296.582569139     -1292.792191339        12.083771110
        42           42.000000         4.786601392       372.930513040     -1297.901379049     -1293.051288300        12.071141597
        43           43.000000         4.501017105       350.680259447     -1297.349131404     -1292.781715903        12.031296618
        44           44.000000         4.400270111       342.830926502     -1297.319356913     -1292.849770581        12.093532246
        45           45.000000         4.102787557       319.653663035     -1296.995186298     -1292.820208399        12.095205739
        46           46.000000         4.033341126       314.242998727     -1296.795714323     -1292.687403582        12.106683526
        47           47.000000         5.048790516       393.358018175     -1298.117925991     -1292.991021923        12.074784271
        48           48.000000         4.428129057       345.001454218     -1297.319981232     -1292.810263436        12.079982646
        49           49.000000         3.904937876       304.238929913     -1296.649521184     -1292.659852373        12.097632680
        50           50.000000         4.514697344       351.746105180     -1297.559021187     -1292.956421824        14.320065975
        51           51.000000         4.548836449       354.405928429     -1297.409653143     -1292.769417783        13.450414091
        52           52.000000         5.005564679       389.990235400     -1298.006723240     -1292.905949792        12.712616418
        53           53.000000         4.467030287       348.032301035     -1297.410467080     -1292.844272955        12.095150255
        54           54.000000         3.780859755       294.571837590     -1296.472613859     -1292.589085793        12.082559966
        55           55.000000         4.820487418       375.570618585     -1297.852469384     -1292.925703125        12.721592836
        56           56.000000         4.797053896       373.744881564     -1297.701694975     -1292.794209647        12.103971794
        57           57.000000         4.458757567       347.387762321     -1297.302982374     -1292.729677678        12.768538207
        58           58.000000         4.494984695       350.210266312     -1297.472372141     -1292.858808751        12.066220064
        59           59.000000         4.190904503       326.518972115     -1296.961788377     -1292.648365504        12.072285358
        60           60.000000         5.083973058       396.099137046     -1298.113191942     -1292.902494877        12.750328336
        61           61.000000         4.922626618       383.528420230     -1297.944816789     -1292.890784599        12.740184374
        62           62.000000         3.897200298       303.636084856     -1296.662298573     -1292.629478607        12.716038734
        63           63.000000         4.391951408       342.182805213     -1297.420578856     -1292.889129469        12.713783156
        64           64.000000         4.517286787       351.947852143     -1297.448971455     -1292.788048626        12.746764306
        65           65.000000         4.761173051       370.949356997     -1297.737023176     -1292.827898168        12.709814750
        66           66.000000         4.737362839       369.094271533     -1297.855277128     -1292.965497224        12.765501257
        67           67.000000         3.812739193       297.055607228     -1296.609938444     -1292.640748801        12.078189902
        68           68.000000         4.525999435       352.626666138     -1297.551597709     -1292.865339831        12.059537649
        69           69.000000         4.842562526       377.290519794     -1297.918096551     -1292.911021795        12.099089999
        70           70.000000         4.107414276       320.014136869     -1296.975385754     -1292.699371096        11.492235769
        71           71.000000         4.165410646       324.532711632     -1297.242861127     -1292.905160517        12.114147078
        72           72.000000         3.877407271       302.093983662     -1296.794452642     -1292.741269438        11.460246656
        73           73.000000         4.479754183       349.023636778     -1297.506084542     -1292.847066746        11.453159556
        74           74.000000         4.943012304       385.116696281     -1298.172973253     -1293.046792877        12.123068843
        75           75.000000         3.783558906       294.782132115     -1296.699736077     -1292.729358783        12.189322449
        76           76.000000         3.925039792       305.805097040     -1297.049281081     -1292.934328789        12.094831500
        77           77.000000         4.246777821       330.872137000     -1297.466760620     -1293.026919439        12.107089799
        78           78.000000         4.121771160       321.132700926     -1297.252140903     -1292.934152399        12.746199731
        79           79.000000         4.356221133       339.399011741     -1297.711844698     -1293.156287424        12.092091493
        80           80.000000         3.535728059       275.473299488     -1296.646558533     -1292.908642801        12.161917005
        81           81.000000         3.887809868       302.904463935     -1297.057050606     -1292.964524990        12.118169539
        82           82.000000         4.758129053       370.712194988     -1298.243193775     -1293.277507893        12.095631517
        83           83.000000         3.965939048       308.991612762     -1297.200336429     -1293.023939939        12.117133249
        84           84.000000         3.739335631       291.336637597     -1297.134104053     -1293.181819136        12.148973744
        85           85.000000         3.512081963       273.631000537     -1296.890757442     -1293.163496972        12.098133028
        86           86.000000         3.626315403       282.531080551     -1296.904626546     -1293.061080569        12.111994162
        87           87.000000         4.479722187       349.021143892     -1298.082524956     -1293.383359206        12.093810942
        88           88.000000         3.673361734       286.196523088     -1297.009671619     -1293.114634073        12.136827469
        89           89.000000         3.445487164       268.442510740     -1296.784892234     -1293.115869735        12.156000879
        90           90.000000         4.108357769       320.087645691     -1297.655330764     -1293.321592572        12.097808018
        91           91.000000         3.854865728       300.337741937     -1297.195231493     -1293.113074382        11.476547953
        92           92.000000         3.996303531       311.357350193     -1297.527991392     -1293.302563081        11.462902933
        93           93.000000         3.370946778       262.634969639     -1296.791663985     -1293.189914281        11.483918574
        94           94.000000         3.098842045       241.434926121     -1296.336257727     -1293.005255260        11.497757494
        95           95.000000         4.250635729       331.172711753     -1297.833578570     -1293.349396595        11.469682455
        96           96.000000         3.933606772       306.472561897     -1297.330653957     -1293.161951208        11.491361629
        97           97.000000         3.601700926       280.613333729     -1296.959162655     -1293.120959808        11.470773429
        98           98.000000         3.704226153       288.601211265     -1297.184693959     -1293.242673837        11.482613336
        99           99.000000         3.403116826       265.141381054     -1296.687928049     -1293.045824858        11.524343897
       100          100.000000         4.077404343       317.676022901     -1297.618595813     -1293.301042718        12.154718086
       101          101.000000         3.635879335       283.276219300     -1297.048860663     -1293.171640845        12.153256778
       102          102.000000         2.971316350       231.499228765     -1296.169157386     -1292.955539221        12.146722104
       103          103.000000         3.874942367       301.901939666     -1297.393752843     -1293.275657891        12.202253252
       104          104.000000         3.916625688       305.149542944     -1297.283177298     -1293.122461576        12.118074693
       105          105.000000         3.933651397       306.476038707     -1297.362030418     -1293.183347958        12.159655035
       106          106.000000         3.695593050       287.928594625     -1297.212463930     -1293.270929938        12.162763976
       107          107.000000         2.948523332       229.723394244     -1296.185908440     -1292.990698752        11.487775203
       108          108.000000         3.843969797       299.488825345     -1297.361655960     -1293.270376622        12.181108929
       109          109.000000         3.929366239       306.142176301     -1297.403844647     -1293.226483635        12.127774563
       110          110.000000         3.314638947       258.247951235     -1296.578386761     -1293.015123268        11.473641153
       111          111.000000         3.705362440       288.689740881     -1297.187199328     -1293.232685763        11.514953259
       112          112.000000         3.573199110       278.392719202     -1296.856293903     -1293.033442263        12.153025240
       113          113.000000         4.060986817       316.396911511     -1297.460110763     -1293.148990894        11.479129586
       114          114.000000         4.047891175       315.376612514     -1297.549415526     -1293.250854788        11.466269195
       115          115.000000         2.937688435       228.879232940     -1296.099537367     -1292.910707948        11.471968684
       116          116.000000         3.526846136       274.781297024     -1296.909435372     -1293.131137885        11.463651218
       117          117.000000         3.962276290       308.706242381     -1297.307532844     -1293.093512490        11.476489868
       118          118.000000         3.869012631       301.439946067     -1297.083833654     -1292.962763627        11.473559756
       119          119.000000         4.091888927       318.804536227     -1297.470109790     -1293.125835055        12.121343154
       120          120.000000         3.433865175       267.537026024     -1296.539745011     -1292.853159827        12.099890817
       121          121.000000         3.943341216       307.230985417     -1297.152556504     -1292.956222394        12.143421520
       122          122.000000         4.448385448       346.579656656     -1297.803619641     -1293.101910823        12.106112126
       123          123.000000         3.516160053       273.948730014     -1296.543618831     -1292.773738957        11.460470553
       124          124.000000         3.679428972       286.669229704     -1296.852504159     -1292.919035420        11.443722736
       125          125.000000         3.845112059       299.577820555     -1296.948730789     -1292.849279033        12.088223759
       126          126.000000         4.189050488       326.374523253     -1297.215751933     -1292.772038872        11.439291753
       127          127.000000         4.777276369       372.203987984     -1298.015118426     -1292.982732762        11.468301129
       128          128.000000         3.763791258       293.242008173     -1296.672780592     -1292.653300170        12.132132042
       129          129.000000         3.796705656       295.806412938     -1296.759288104     -1292.706370743        11.455606699
       130          130.000000         4.424162322       344.692400565     -1297.538660187     -1292.857714319        11.440322183
       131          131.000000         4.057672300       316.138673074     -1296.884008754     -1292.568867731        11.495962929
       132          132.000000         4.301479989       335.134056026     -1297.289462529     -1292.729777517        12.093423281
       133          133.000000         3.952720520       307.961739604     -1296.774992705     -1292.563262344        12.110895693
       134          134.000000         4.102342218       319.618966075     -1296.853744286     -1292.491573544        12.133441031
       135          135.000000         5.084736956       396.158653360     -1298.138237773     -1292.792651247        12.137332536
       136          136.000000         4.343192927       338.383966752     -1297.105352603     -1292.500024199        12.165372957
       137          137.000000         4.015426502       312.847246458     -1296.798924427     -1292.520103689        12.148447104
       138          138.000000         4.242565060       330.543915137     -1297.142526897     -1292.635275205        12.160342775
       139          139.000000         4.162104360       324.275114455     -1296.851037528     -1292.422857246        11.484412141
       140          140.000000         4.856313052       378.361841593     -1297.788385693     -1292.664410236        11.478261728
       141          141.000000         4.338553409       338.022495737     -1297.111036198     -1292.503007767        11.473202702
       142          142.000000         4.003459632       311.914891585     -1296.632227394     -1292.357539626        11.464190975
       143          143.000000         4.869347607       379.377381230     -1297.786847885     -1292.644337986        12.123482049
       144          144.000000         4.508558568       351.267824872     -1297.225816034     -1292.441850588        12.180234034
       145          145.000000         4.360319112       339.718290756     -1297.126889534     -1292.488887649        12.122779775
       146          146.000000         4.189137924       326.381335520     -1297.040317954     -1292.571197256        12.775813717
       147          147.000000         3.879429215       302.251516052     -1296.523975709     -1292.362332773        12.748459712
       148          148.000000         4.907377662       382.340353616     -1297.900690338     -1292.708629594        13.412624467
       149          149.000000         4.698387585       366.057657380     -1297.554621762     -1292.568642330        13.421847980
       150          150.000000         4.083311460       318.136254279     -1296.828807284     -1292.455075677        13.400541827
       151          151.000000         4.493216212       350.072481456     -1297.467933882     -1292.681465396        13.458029967
       152          152.000000         4.256024714       331.592574735     -1297.049935791     -1292.497659331        12.817155942
       153          153.000000         4.562669496       355.483679640     -1297.512138731     -1292.650102012        12.766615566
       154          154.000000         4.368015112       340.317896344     -1297.382065626     -1292.711399915        12.762225077
       155          155.000000         3.633804161       283.114539744     -1296.391188580     -1292.451719115        12.768372584
       156          156.000000         4.542417484       353.905818327     -1297.597320237     -1292.746181908        12.822023217
       157          157.000000         4.676454037       364.348785356     -1297.691637842     -1292.702904503        12.810329817
       158          158.000000         4.278187310       333.319292222     -1297.225055363     -1292.630988985        12.747530419
       159          159.000000         4.282928262       333.688666144     -1297.405783505     -1292.803460546        12.133245025
       160          160.000000         3.700995203       288.349483646     -1296.622762809     -1292.599053906        12.126730595
       161          161.000000         4.323180872       336.824800801     -1297.369757104     -1292.720563228        12.132782474
       162          162.000000         4.558344059       355.146679044     -1297.765618513     -1292.877553961        12.786802307
       163          163.000000         3.722087025       289.992775637     -1296.685983611     -1292.630640390        12.779681839
       164          164.000000         4.137420081       322.351929288     -1297.349609381     -1292.875614665        12.766067974
       165          165.000000         4.221728821       328.920535886     -1297.385688102     -1292.823849519        12.163270019
       166          166.000000         4.273030653       332.917530193     -1297.441333157     -1292.824570439        12.132988840
       167          167.000000         4.394255816       342.362344694     -1297.767653294     -1293.025927151        12.147230640
       168          168.000000         3.415711188       266.122624661     -1296.526744248     -1292.760162767        12.140178341
       169          169.000000         3.811242022       296.938960636     -1297.098053509     -1292.932896003        11.489703082
       170          170.000000         4.364328998       340.030706330     -1297.783142513     -1293.061511508        11.519616354
       171          171.000000         3.882707310       302.506916759     -1297.109992983     -1292.866542412        12.099389497
       172          172.000000         4.058739950       316.221855073     -1297.498122439     -1293.075358256        12.142505113
       173          173.000000         3.688469414       287.373582675     -1297.017747268     -1292.962079358        11.483569037
       174          174.000000         3.832304148       298.579939060     -1297.201009912     -1292.998499445        11.471551057
       175          175.000000         4.353222177       339.165359000     -1297.960912633     -1293.234261732        12.096474249
       176          176.000000         3.441946192       268.166628873     -1296.791350136     -1292.972894872        12.133070853
       177          177.000000         3.482119904       271.296616507     -1296.940205963     -1293.078942882        12.119613789
       178          178.000000         3.882574522       302.496571064     -1297.453202011     -1293.188794952        12.153485384
       179          179.000000         3.776742493       294.251056242     -1297.187821108     -1293.026503973        11.477807831
       180          180.000000         4.156487961       323.837533253     -1297.821573144     -1293.277723948        12.151447337
       181          181.000000         3.459294624       269.518268404     -1296.958958515     -1293.109639711        12.141765557
       182          182.000000         3.347317116       260.793951112     -1296.836594870     -1293.096971632        12.091856044
       183          183.000000         4.123042329       321.231739411     -1297.883078432     -1293.365346244        11.496443417
       184          184.000000         3.614243137       281.590514231     -1297.150937270     -1293.139552730        12.319999732
       185          185.000000         3.596593018       280.215369816     -1297.232295572     -1293.236347624        11.494053252
       186          186.000000         3.602120315       280.646008946     -1297.264451702     -1293.260849464        11.471137896
       187          187.000000         3.513417502       273.735054169     -1297.031525051     -1293.114604326        11.444014695
       188          188.000000         4.266912808       332.440880721     -1298.057154931     -1293.384610547        11.609459039
       189          189.000000         3.642963934       283.828189876     -1297.255547115     -1293.204770163        12.081860188
       190          190.000000         3.197613015       249.130304450     -1296.730679909     -1293.123426615        12.125602197
       191          191.000000         3.749660996       292.141100607     -1297.496881965     -1293.335849806        12.106750727
       192          192.000000         3.572415089       278.331635059     -1297.136643341     -1293.151092290        12.138316419
       193          193.000000         3.865192515       301.142315657     -1297.565965203     -1293.285911228        12.105311733
       194          194.000000         3.620999051       282.116876476     -1297.310895806     -1293.273330524        12.133054689
       195          195.000000         3.184705951       248.124697826     -1296.671954105     -1293.069195004        12.148656409
       196          196.000000         4.041298258       314.862949578     -1297.784264372     -1293.323450846        12.110624764
       197          197.000000         3.825079712       298.017073591     -1297.432015234     -1293.185833581        12.122618187
       198          198.000000         3.422600953       266.659415420     -1296.934937340     -1293.089797314        12.103744719
       199          199.000000         3.598368998       280.353738779     -1297.250353668     -1293.228134154        11.464644026
       200          200.000000         3.351489611       261.119035770     -1296.795830521     -1293.019259204        12.111811884
       201          201.000000         4.042330227       314.943351630     -1297.666394790     -1293.197760538        12.477842316
       202          202.000000         3.987311188       310.656744712     -1297.590170032     -1293.175218343        11.490382511
       203          203.000000         3.273968670       255.079275584     -1296.639258897     -1292.936440486        11.477476008
       204          204.000000         3.852397027       300.145402144     -1297.435206933     -1293.152862541        11.490703426
       205          205.000000         3.853161258       300.204944364     -1297.329630035     -1293.045356869        12.169056028
       206          206.000000         3.864708773       301.104626743     -1297.313764863     -1293.016786019        12.151354086
       207          207.000000         3.955498420       308.178169442     -1297.506723362     -1293.117785110        11.486388180
       208          208.000000         3.357722587       261.604655214     -1296.644631448     -1292.852378347        12.178683948
       209          209.000000         4.042989556       314.994720797     -1297.513798843     -1293.035247820        12.147480413
       210          210.000000         4.345612084       338.572446550     -1297.839411989     -1293.057044285        12.240898758
       211          211.000000         3.778771863       294.409167189     -1297.054336571     -1292.837579518        11.489604264
       212          212.000000         4.025816114       313.656714986     -1297.462742363     -1292.997760006        11.550773658
       213          213.000000         3.836487609       298.905878067     -1297.128571536     -1292.851709970        11.486004513
       214          214.000000         4.160044310       324.114613204     -1297.459745984     -1292.858095189        11.490821384
       215          215.000000         4.517844577       351.991310295     -1297.937036175     -1292.976182971        11.555376425
       216          216.000000         3.721289082       289.930606900     -1296.851107149     -1292.685375320        11.484003931
       217          217.000000         4.064266231       316.652415052     -1297.319006012     -1292.808944455        11.461727016
       218          218.000000         4.393191216       342.279400294     -1297.683898334     -1292.843402052        12.160859354
       219          219.000000         4.167777284       324.717099495     -1297.294480767     -1292.677773393        11.476656135
       220          220.000000         4.396052205       342.502303751     -1297.680750232     -1292.834065389        11.555163268
       221          221.000000         3.841444543       299.292079479     -1296.893063923     -1292.599262120        11.484503597
       222          222.000000         4.077393185       317.675153544     -1297.176441472     -1292.645021039        12.163256761
       223          223.000000         4.706748719       366.709084534     -1298.001379877     -1292.838694713        12.747582562
       224          224.000000         4.106824399       319.968178808     -1297.146913120     -1292.582088757        12.739538867
       225          225.000000         4.184171129       325.994365879     -1297.325407024     -1292.681228204        12.797416713
       226          226.000000         4.225372499       329.204419685     -1297.352648988     -1292.665170026        12.083898749
       227          227.000000         4.193392984       326.712852957     -1297.211022780     -1292.553352546        12.126140665