    2703
 i =        0, time =        0.000, E =     -1297.1543162363
  C        16.5443710000       13.6944140000       13.8920780000
  O        17.5867400000       13.1750850000       14.4011900000
  O        15.9497970000       14.7640730000       14.4812520000
  N        15.8778390000       13.2295680000       12.8319640000
  H        16.6229210000       15.1363950000       15.0916150000
  H        16.2610820000       12.4982830000       12.1965880000
  H        15.0143230000       13.6618340000       12.5358960000
  N        13.7210990000       15.1345240000       12.7007620000
  H        12.8624440000       14.5845830000       12.6027810000
  H        13.7469100000       15.5579660000       11.5682630000
  H        13.6054180000       15.9376380000       13.3059300000
  O        19.5311550000       12.4218080000       13.2128840000
  H        19.6848160000       11.5639360000       12.7656000000
  H        18.2111430000       12.6091540000       13.7659350000
  H        20.3402920000       12.5515580000       13.7484200000
  O        30.2863060000       16.6471790000        2.0215040000
  H        29.7376080000       16.4576610000        1.2509100000
  H        30.2726880000       15.7890010000        2.4833920000
  O         2.2138930000       20.3443930000        3.0118060000
  H         1.7018280000       20.0922830000        2.2863200000
  H         2.2363140000       21.3339230000        2.9051830000
  O         2.8898290000        9.4731060000      -11.0586610000
  H         2.5876520000        8.7507270000      -10.4998500000
  H         2.0751120000        9.8694720000      -11.3969860000
  O        29.7856410000       24.2695310000       -6.7006990000
  H        29.6192680000       25.1116260000       -6.3340210000
  H        28.9421940000       24.0375160000       -7.1786890000
  O        25.9942170000        9.9941700000       11.6716370000
  H        25.4817330000        9.6463250000       12.3990130000
  H        25.3293530000        9.9954710000       10.9669700000
  O        19.9357700000       -0.9076760000       11.0242330000
  H        19.0311370000       -0.4909630000       10.8428030000
  H        19.5825900000       30.1711940000       11.3111700000
  O        -0.1391240000       24.1352460000       -4.9891340000
  H        -0.6297670000       23.6955590000       -5.7123350000
  H        -0.3203590000       25.0897050000       -5.1772230000
  O        -0.3693020000       12.7013930000        1.2341580000
  H        -0.2914140000       12.3915770000        0.3268180000
  H         0.1409330000       13.4414350000        1.3310910000
  O        28.0645710000        5.0781990000       -1.8452290000
  H        27.1602730000        5.4649210000       -1.7974550000
  H        27.8787250000        4.1099840000       -1.9703740000
  O        20.2219330000       25.1860390000       -3.3900210000
  H        20.9099560000       25.4761890000       -2.7449560000
  H        20.7457140000       25.5613140000       -4.2349580000
  O         2.8651680000       12.3482870000        5.4608060000
  H         1.9568110000       12.2631100000        5.0467770000
  H         3.3570960000       11.9618490000        4.7004870000
  O         9.4474300000       18.8084370000      -13.6518980000
  H         8.7358110000       19.2684610000      -13.0837910000
  H         8.8729510000       18.6620830000      -14.4303440000
  O        25.6236020000        5.9520100000       -1.5487660000
  H        25.4741130000        6.8629890000       -1.4084160000
  H        24.7434520000        5.4823400000       -1.4057160000
  O         4.2549030000        3.0975200000      -10.6152360000
  H         3.8419950000        3.5090480000      -11.4096510000
  H         4.6478920000        3.9542450000      -10.1609530000
  O        23.3441370000        4.5141610000       -0.7528280000
  H        23.9390390000        4.4196650000        0.0442560000
  H        22.8968490000        3.6566760000       -0.6961850000
  O        12.6434740000        1.8317340000       -9.4024250000
  H        13.4139750000        2.4816700000       -9.3803140000
  H        11.9565590000        2.4742670000       -9.1445650000
  O        -0.6610080000       23.2205010000       -1.0157560000
  H        -0.3638220000       22.3358310000       -1.3317270000
  H         0.1902460000       23.7537190000       -1.1160970000
  O        27.8553100000       30.9251380000       -3.3583740000
  H        27.0837860000       -1.0032180000       -3.9409090000
  H        28.5614660000       -0.5064150000       -3.7919840000
  O        21.4855610000       28.1078300000       -7.3947950000
  H        21.1310370000       28.8302630000       -8.0059230000
  H        22.0588130000       28.6733300000       -6.7942030000
  O        18.3989010000       14.4297150000      -10.9903370000
  H        18.3878020000       15.0716630000      -11.7418600000
  H        18.5665450000       15.0211980000      -10.2352020000
  O        13.4024580000       15.4064420000      -15.0953120000
  H        13.1826630000       16.1740530000      -14.5758740000
  H        13.3259020000       15.7384590000      -16.0148140000
  O        20.0715680000       29.4378130000      -12.9813140000
  H        20.5446220000       28.8119450000      -12.3704040000
  H        19.1700040000       29.2874870000      -12.6534000000
  O        23.1330910000        8.3217920000       -6.2226590000
  H        23.8025760000        8.2740820000       -5.4484060000
  H        23.3043250000        7.3586750000       -6.5586760000
  O        24.5101030000        1.6370410000       -5.0548280000
  H        24.3241650000        2.6255030000       -4.7959740000
  H        23.7539920000        1.2264700000       -4.5324990000
  O         0.3020060000        7.9472610000      -11.7142670000
  H         0.6624510000        8.2216130000      -12.5670670000
  H         0.2646990000        6.9678290000      -11.7746300000
  O        23.2484990000       13.8571020000        1.4874180000
  H        24.0098860000       13.4531520000        1.0615350000
  H        23.6404420000       14.8006390000        1.5007130000
  O        18.2328260000        9.4474330000        4.1703780000
  H        18.7710740000       10.3075820000        3.9904660000
  H        17.4316940000        9.7099330000        3.6369640000
  O         1.9621340000       27.8593830000       -0.9784180000
  H         1.3960980000       28.6264550000       -0.6634060000
  H         2.7943730000       28.0772270000       -0.5551530000
  O        27.6034790000        7.6947930000      -15.4270110000
  H        27.2845630000        8.2729430000      -16.1150950000
  H        26.7285560000        7.1775040000      -15.2799990000
  O        16.1592160000        1.5043550000       -3.8791410000
  H        16.8689250000        0.8500280000       -3.6410470000
  H        16.5584410000        2.3429210000       -3.7040330000
  O        24.0811880000       -0.8614590000        2.3454300000
  H        23.7541560000       -1.5051450000        2.9809950000
  H        23.4302140000       -0.1338610000        2.4386960000
  O         1.2866380000        9.5300200000      -13.5876050000
  H         1.0673080000       10.4712850000      -13.6789900000
  H         2.3107660000        9.6097320000      -13.6238900000
  O        27.8923170000       31.0230100000       14.0150430000
  H        26.9653990000       31.1692430000       14.1185680000
  H        27.9938030000       31.1037560000       13.0128080000
  O         9.9929010000        0.4942930000        5.3706920000
  H         9.0611140000        0.7089290000        5.3315700000
  H        10.2789510000        1.0230790000        6.1312690000
  O         8.0627030000        4.8564130000       -1.9467170000
  H         9.0616170000        4.7328550000       -2.0961460000
  H         7.9730180000        4.7385170000       -0.9671470000
  O        10.0140500000       -1.2731310000      -12.3976700000
  H        10.1539870000       30.1534670000      -13.1930860000
  H        10.5699070000       -1.6464910000      -11.7469540000
  O        27.7233620000       18.8129180000        8.5074620000
  H        28.3599150000       18.3953880000        7.8054260000
  H        28.1413540000       19.6498720000        8.5632410000
  O        27.2256620000        9.7708870000        1.2326000000
  H        28.1749400000        9.8995490000        1.2481310000
  H        27.0459790000        9.3025440000        2.0914130000
  O        25.1178820000        8.0200490000       -4.3578730000
  H        25.9225810000        8.4987630000       -4.0286160000
  H        25.2307050000        7.1646110000       -3.8896340000
  O         5.9905830000        5.7130080000      -13.8360210000
  H         6.8167440000        5.9127590000      -14.2634250000
  H         5.8743240000        4.7318010000      -14.0138810000
  O        12.4809890000        5.1880670000        5.1945770000
  H        13.1941220000        5.8537690000        5.1094920000
  H        11.6854700000        5.6586270000        4.9682670000
  O        12.2792490000        2.8404100000       -1.0039240000
  H        11.7545270000        2.2982590000       -0.2931950000
  H        13.0744540000        2.2758120000       -1.0793780000
  O         5.8373180000        2.9785160000      -13.8458100000
  H         5.1601160000        2.5991770000      -14.4377550000
  H         5.9990910000        2.3236660000      -13.1698010000
  O        28.4911440000        5.0190860000        0.9537710000
  H        29.4391140000        5.2577330000        1.1653790000
  H        28.5291690000        5.0327410000       -0.0452640000
  O        15.9232450000       14.0411040000        2.8158560000
  H        14.9737170000       13.9283710000        3.0110650000
  H        16.2717040000       13.3187150000        3.3625950000
  O         7.9679630000       12.3050940000      -10.7931720000
  H         8.5230390000       11.5539040000      -11.0397210000
  H         7.1787440000       12.2853880000      -11.3954200000
  O        12.3111700000       14.2546880000       -6.4455820000
  H        11.7063790000       14.9568330000       -6.1116840000
  H        11.9985400000       14.2007570000       -7.4060790000
  O        30.0351850000        4.9410330000       11.4009590000
  H        29.2706620000        5.2898960000       11.7942430000
  H        29.7368910000        4.5470070000       10.5699560000
  O        23.4982200000       13.3058290000       10.1085210000
  H        23.9811310000       12.5086710000        9.6487300000
  H        23.9273400000       14.0495000000        9.6966680000
  O        10.8469500000       -1.3637710000       -9.3918890000
  H        10.2912350000       -0.5890300000       -9.0571090000
  H        11.7191120000       -1.1301850000       -9.1169820000
  O        19.7336460000       17.0120120000        0.5113430000
  H        19.3818450000       16.2751750000        1.0927330000
  H        18.9060330000       17.5747070000        0.3418290000
  O         9.3421920000       11.6309590000       11.8624940000
  H         9.3547030000       12.1191190000       11.0105720000
  H         9.2593630000       12.3123560000       12.5984710000
  O        10.0877380000       20.7116830000        5.8744500000
  H         9.5402200000       20.9087680000        5.1021650000
  H         9.5281380000       21.1435050000        6.5459740000
  O         9.1608470000       25.8372270000       -1.9996830000
  H         9.9941660000       25.5952150000       -1.5039470000
  H         9.3797540000       25.6503390000       -2.9011990000
  O         9.6262230000        1.3879170000      -13.1029360000
  H         9.7176820000        0.4058460000      -13.2037660000
  H        10.5231780000        1.6138740000      -12.7327560000
  O        16.3201030000       20.0031870000        7.7353560000
  H        15.5640980000       19.3735330000        7.6218490000
  H        16.7798580000       20.0907760000        6.8951720000
  O         6.1040370000        1.2799190000        9.8322230000
  H         6.2670390000        0.9655320000       10.7310790000
  H         5.5286610000        0.5467430000        9.4969440000
  O        19.2961620000        1.5510220000      -13.9962240000
  H        19.8162120000        2.2793050000      -14.4893780000
  H        19.7714370000        0.7728890000      -14.2952250000
  O        27.6417010000       24.8470190000      -14.1594130000
  H        28.4261040000       25.1819320000      -14.6680970000
  H        27.2979050000       25.7752650000      -13.8456570000
  O         9.2064050000       29.7634220000        7.4528420000
  H         9.5585170000       29.0354940000        7.0059420000
  H         8.2590670000       29.7223110000        7.2084610000
  O         6.6848140000       19.5126650000       -2.0557540000
  H         6.7856140000       18.8442150000       -2.8228940000
  H         5.6886340000       19.3549880000       -1.9185170000
  O        25.8418940000       20.3219470000        7.0727460000
  H        25.7536140000       21.1239410000        7.4985920000
  H        26.6249200000       19.8927650000        7.5976440000
  O         9.7175880000        7.9871260000        2.8222430000
  H         8.7461990000        8.2311850000        2.5450670000
  H        10.1344800000        7.6710610000        2.0458870000
  O        29.2849330000        5.4902270000       17.5989990000
  H        29.3451560000        5.1174670000       18.5012630000
  H        30.1578290000        5.3057690000       17.2653680000
  O         8.0623580000       -0.1781030000       -1.3218640000
  H         8.7872530000       -0.3929600000       -1.9370450000
  H         8.5194070000        0.2281080000       -0.5710440000
  O        19.9974580000       22.4058650000        4.7612200000
  H        19.1822720000       22.8869610000        4.4623000000
  H        20.1955910000       21.7951910000        4.0368300000
  O        26.7979720000       27.8492050000       -1.0655490000
  H        26.7080550000       28.7974070000       -0.7926620000
  H        27.1729910000       28.0006200000       -1.9562090000
  O        22.5264150000       11.6064400000       -3.9271930000
  H        23.2860640000       12.1649390000       -3.6467930000
  H        22.0533120000       11.6097770000       -3.0356830000
  O        13.7328280000        1.1058950000       12.3593990000
  H        13.9247460000        1.4389120000       11.4265190000
  H        13.0638270000        0.4649690000       12.1851190000
  O         7.5647130000       29.0945610000       13.3235750000
  H         7.2298960000       29.3158170000       14.2092070000
  H         8.5502870000       28.9397790000       13.4651850000
  O         0.4025540000        2.4157950000        0.0267130000
  H         0.0031930000        2.7960100000       -0.8389460000
  H         1.1824540000        2.0494850000       -0.4149510000
  O        10.3195070000       11.1751510000      -13.5662940000
  H        10.3442130000       12.0705240000      -13.9599920000
  H        10.7938120000       10.6589290000      -14.3016320000
  O         6.9224040000       29.7575660000       -4.3622910000
  H         6.3452590000       -1.6479290000       -3.8150110000
  H         7.2137550000       30.4148620000       -5.0360090000
  O        30.2374210000       16.1049370000      -15.5689380000
  H        30.0456890000       15.4558300000      -14.7853060000
  H        29.7584100000       16.8892020000      -15.2666190000
  O        16.0435120000       13.2263980000        6.6746740000
  H        16.9778060000       13.5454250000        6.4353280000
  H        15.6995620000       12.7397360000        5.9125270000
  O        14.8708560000       10.3178110000        0.3770750000
  H        14.4232050000       11.0606310000       -0.0633900000
  H        14.1577300000        9.6161980000        0.3478230000
  O        10.0580090000       16.4009720000      -12.5153990000
  H        10.1055050000       17.2268100000      -13.0544160000
  H        10.3757720000       16.7253890000      -11.6425250000
  O        21.1550160000       30.8005910000       -3.7201370000
  H        21.8849700000       30.9266050000       -4.3963560000
  H        20.6413730000       -0.4425660000       -3.8913050000
  O        25.2027780000        6.6031620000      -14.6562600000
  H        24.7167530000        7.4021420000      -14.2351080000
  H        24.4501860000        6.0518640000      -14.9031330000
  O        12.0787180000       20.8431070000        1.1897820000
  H        12.2182070000       19.9385950000        1.3363900000
  H        11.6665200000       20.8133680000        0.2666100000
  O        26.7964710000        0.4094020000       -8.8054500000
  H        27.1367380000        0.8739380000       -9.5747590000
  H        26.3431380000       -0.3977560000       -9.1734230000
  O        16.0068300000       18.5529670000       -8.9005610000
  H        16.4724770000       19.4088360000       -8.7496330000
  H        15.1540160000       18.6225740000       -8.4753760000
  O        21.1567900000       13.1666610000        8.4527450000
  H        21.7252270000       12.7860270000        7.7227580000
  H        21.8693940000       13.1685310000        9.1860040000
  O         8.1541130000       15.1882900000       11.5783330000
  H         8.4220470000       14.4791200000       11.0121900000
  H         8.9860390000       15.8156340000       11.5129980000
  O        12.6092180000        3.6058370000        7.3337100000
  H        12.4160260000        4.3039710000        6.5933290000
  H        11.6710730000        3.3964190000        7.5172200000
  O        22.9146750000       16.3746010000        7.5256660000
  H        23.3831370000       15.5495930000        7.2750330000
  H        23.6342560000       16.9751590000        7.7535170000
  O        27.8675690000       24.0968740000       11.0713620000
  H        28.0404400000       24.9191880000       10.6149280000
  H        26.8622700000       23.9965760000       10.9557970000
  O        10.1866410000        6.8634630000        0.3476440000
  H         9.3673580000        6.3874960000        0.3286030000
  H        10.7971880000        6.2715640000       -0.1533020000
  O         4.1051540000        0.2851520000        6.3292550000
  H         3.6777490000        1.1767110000        6.3120810000
  H         3.3997580000       -0.2549690000        5.8609300000
  O         3.1126060000        2.7307160000        7.4930300000
  H         2.1504490000        2.5856390000        7.6886630000
  H         3.4671980000        2.6329580000        8.3886390000
  O        11.3127400000       -1.0523920000        3.3613630000
  H        10.8208940000       -0.5208600000        3.9836700000
  H        12.2739300000       -0.8592830000        3.5541650000
  O        19.2608950000       19.6943070000       11.3965170000
  H        18.6684420000       19.0670570000       10.9310670000
  H        20.0885810000       19.2477230000       11.6370180000
  O        21.5500950000       25.8405130000      -14.2086900000
  H        21.3085560000       24.9986500000      -14.6995400000
  H        20.6639330000       26.3789520000      -14.1463670000
  O        10.6643790000        3.6141980000       -9.0368560000
  H        10.2590360000        4.1138130000       -9.7767140000
  H        10.5614790000        4.3615950000       -8.3385380000
  O        18.6173760000       28.8583010000       -0.8649210000
  H        18.3754790000       29.4586660000       -0.0991570000
  H        17.8174990000       28.9517650000       -1.3971320000
  O        15.1378220000       22.6202930000       -1.0378020000
  H        15.2670720000       22.3236030000       -0.1121330000
  H        16.0594330000       22.8652920000       -1.2504780000
  O         9.9990430000        3.4967920000       10.8941210000
  H        10.3858980000        3.4541560000        9.9763650000
  H         9.1622260000        3.9658210000       10.7042010000
  O        23.2039410000       29.4966600000        4.2739560000
  H        22.5588720000       29.3673080000        4.9416740000
  H        23.3762820000       28.5630530000        4.0098650000
  O         4.2377180000       14.8058000000        5.4341340000
  H         3.5556700000       14.1856430000        5.6100530000
  H         4.5505290000       15.1097000000        6.3589750000
  O         5.7226760000        6.1417630000       -1.6354270000
  H         5.5188290000        6.2918630000       -2.5919380000
  H         6.4431750000        5.4550000000       -1.7198980000
  O        18.4050310000       10.8494930000        8.0032380000
  H        19.1093850000       10.5771250000        8.6487160000
  H        18.0428430000       10.0094560000        7.6479090000
  O        18.0263270000        7.8047040000       -9.9550290000
  H        18.5458510000        8.3071880000       -9.3190040000
  H        17.3639640000        8.5292820000      -10.2687690000
  O         1.1170130000       17.2575950000      -13.5659410000
  H         1.6535690000       16.6316930000      -13.0625450000
  H         1.3942130000       17.0442120000      -14.4954020000
  O        22.8698520000        6.3922070000        4.0054530000
  H        22.3122630000        5.9298390000        3.3786660000
  H        23.7222160000        5.9585370000        3.8124690000
  O         8.0756790000        2.5163550000       -3.6908760000
  H         7.6141630000        3.2888390000       -3.2482660000
  H         8.9936890000        2.7247120000       -3.4582990000
  O        18.7007350000        3.7624750000       11.0742440000
  H        18.2202210000        3.0447890000       11.4362390000
  H        19.6403370000        3.5071040000       11.1034190000
  O         8.4661230000       21.7382370000        3.6762590000
  H         8.6221450000       21.8757990000        2.7348150000
  H         7.6746900000       21.1566430000        3.6321220000
  O         8.3899000000       22.7077670000       11.3710090000
  H         8.8567970000       23.5167880000       11.5701190000
  H         9.0661900000       22.0091900000       11.3709660000
  O        19.3825230000        1.3523870000       -6.8262310000
  H        19.0880010000        2.1875870000       -7.2739990000
  H        19.5332510000        1.6687150000       -5.9196620000
  O        10.7546720000       28.5696640000       -2.3136100000
  H        10.9926720000       -2.5966200000       -2.8333640000
  H        10.2270150000       -3.0247600000       -1.6515540000
  O         2.1143500000       19.9849210000      -11.6363110000
  H         1.7108350000       19.9771440000      -12.5476640000
  H         1.9546960000       20.9151610000      -11.3980940000
  O         0.2300930000       -2.4630640000        6.8784300000
  H         0.2128780000       -2.3217280000        7.8670060000
  H        -0.0813370000       28.6687090000        6.7693980000
  O        12.0169230000        9.5723920000      -15.0187370000
  H        11.7991580000        8.8423840000      -14.4886310000
  H        12.5728070000        9.1023250000      -15.7637560000
  O        22.5786880000        1.8057350000       -0.3465300000
  H        21.7920270000        1.1423000000       -0.2905260000
  H        23.0963330000        1.4664700000        0.3860050000
  O        15.6899780000        7.8085660000       -0.9558820000
  H        15.3479810000        8.2842450000       -1.7608220000
  H        15.8447180000        8.5801720000       -0.3347690000
  O        14.0487960000        9.7698840000       12.6227860000
  H        13.0280660000        9.6175100000       12.6574860000
  H        14.4365460000        9.3798530000       13.4492030000
  O        23.8538740000       29.7658370000        0.1213110000
  H        23.8727440000       28.7975350000        0.3207780000
  H        23.8430190000       -1.7584640000        0.9383830000
  O         1.8956100000        7.2843330000       -0.1398280000
  H         2.2535430000        6.4630830000       -0.3697920000
  H         2.0745450000        7.2948290000        0.8340650000
  O        24.8090880000       23.8100970000       -6.9966950000
  H        24.9643330000       22.9824700000       -6.4360070000
  H        23.9115160000       23.9715290000       -6.8591470000
  O         1.3398620000       30.1169820000        0.2795720000
  H         0.5363410000       -1.2664450000        0.3318420000
  H         2.0025060000       -1.4076760000        0.8435890000
  O        10.1712420000        6.4654860000        4.8596520000
  H        10.0746610000        7.0047100000        4.0416550000
  H         9.9118300000        7.0898160000        5.5444830000
  O        30.0286940000        3.6874840000        5.7862110000
  H        29.5082170000        3.1846540000        5.0759230000
  H        29.2953110000        4.1981820000        6.1716740000
  O        21.7585350000       11.3327140000        6.1847740000
  H        22.4550380000       10.5982980000        6.0528160000
  H        20.9700160000       10.8973760000        6.6943880000
  O         1.8893910000       14.5684900000        1.6515450000
  H         1.7525900000       15.1331000000        2.4386030000
  H         2.7929520000       14.2390140000        1.8360690000
  O        12.4047300000       16.2022400000        5.3953010000
  H        11.7962230000       16.9032690000        5.7336850000
  H        11.7884960000       15.6223660000        4.9292870000
  O        11.8337550000       28.1835190000       -8.6812970000
  H        11.6413210000       29.1364630000       -9.0340750000
  H        12.5996490000       28.3103370000       -8.1510820000
  O        29.2025200000       27.6234190000      -12.6875060000
  H        28.3280430000       27.1909140000      -12.3387910000
  H        -2.6276420000       28.2521250000      -11.9995400000
  O         1.7558410000       28.3914130000       -7.3996330000
  H         1.3090170000       28.4145200000       -8.2617920000
  H         1.6499970000       27.4729100000       -7.1613140000
  O        -1.1949830000        0.1032500000        5.6546490000
  H        -0.8530030000        0.7609840000        6.2387450000
  H        -0.7477340000       -0.7080350000        6.0526630000
  O        14.3798180000        1.1207480000       -1.4532400000
  H        14.5442650000        1.3521240000       -2.4334230000
  H        15.1458390000        0.6170210000       -1.2264440000
  O        16.4368110000       25.5213240000      -12.5489370000
  H        16.3544270000       24.6854950000      -13.1754090000
  H        15.5342490000       25.8830700000      -12.6760390000
  O        13.7195140000       12.5115060000        2.2613910000
  H        12.9853940000       13.0209730000        1.8104880000
  H        14.3268150000       12.4013020000        1.5180650000
  O        -0.4283580000       25.6961440000       14.0867130000
  H         0.1723200000       24.9119870000       14.0544270000
  H        30.7074490000       25.2373710000       13.8872020000
  O         6.5564260000       25.1476520000        6.7026310000
  H         7.2121730000       25.0280380000        5.9806740000
  H         5.9082630000       25.7210080000        6.1994070000
  O        24.2773720000       -0.5130760000      -16.2629070000
  H        23.5765150000       -0.9667040000      -16.6631580000
  H        24.6760220000        0.0250500000      -17.0286450000
  O         1.8325060000       18.0149310000       -8.4254610000
  H         1.7143390000       17.3581580000       -7.7046030000
  H         1.1073870000       17.9189820000       -9.0075340000
  O        24.1989460000       10.4842390000       -8.1896450000
  H        24.9715330000       10.6870090000       -7.6993680000
  H        24.3094980000        9.4778320000       -8.2163360000
  O        18.1747760000        3.2190300000      -10.8546920000
  H        17.2189270000        3.4290990000      -10.5413680000
  H        18.4821910000        4.1240940000      -11.1148420000
  O        24.7558060000        2.1973170000       -7.8873290000
  H        25.3369810000        1.4938570000       -8.2891250000
  H        24.7105330000        1.9740400000       -6.9725930000
  O        13.9180020000        3.4518990000       13.5725620000
  H        12.9675290000        3.6613190000       13.6560030000
  H        13.8450550000        2.5331130000       13.2264440000
  O        21.8354820000       22.2189460000       -9.9588540000
  H        22.1056330000       23.0311030000      -10.4917110000
  H        20.9613250000       22.1119020000      -10.2676120000
  O        17.1539020000       18.3958800000      -11.7499670000
  H        16.3297270000       18.5398010000      -12.2519840000
  H        16.8647270000       17.9179020000      -10.9544440000
  O        15.3029150000        9.4932070000       10.1001450000
  H        14.8886910000        9.3812410000       11.0127360000
  H        14.7694750000        8.9522240000        9.3812090000
  O        29.7512660000       15.4754160000       -0.6622100000
  H        29.2517660000       14.6378300000       -0.4618590000
  H        28.9317860000       16.0304260000       -0.9694970000
  O         8.2334730000        0.8715850000      -10.8351190000
  H         8.9433960000        0.7785270000      -11.5108220000
  H         8.1366140000       -0.0597110000      -10.5297240000
  O         0.4932620000       19.8096410000        1.0188550000
  H         0.6068600000       20.1624890000        0.1163300000
  H         0.6235100000       18.8423750000        0.8150650000
  O        13.0686640000        4.1047890000        2.6312580000
  H        13.0428400000        4.3087530000        3.5925220000
  H        13.7156820000        4.6767950000        2.2655210000
  O         9.1408880000       14.1143050000       -5.2273700000
  H         9.7393290000       13.7548950000       -4.5450600000
  H         8.4180350000       14.4653900000       -4.6846920000
  O        21.1242370000       20.5421350000        8.9497950000