#     Step Nr.          Time[fs]        Kin.[a.u.]          Temp[K]            Pot.[a.u.]        Cons Qty[a.u.]        UsedTime[s]
         0            0.000000         3.844830508       300.000000000     -1262.432263753     -1258.586958223         0.000000000
         1            1.000000         3.419647231       266.824289667     -1261.853510347     -1258.432590089        42.808286808
         2            2.000000         3.362406072       262.357942547     -1261.778482901     -1258.414126008        10.810547799
         3            3.000000         3.608003621       281.521144781     -1261.996874198     -1258.386304424        10.821824372
         4            4.000000         3.630125282       283.247228274     -1261.829750822     -1258.196469626        10.247573767
         5            5.000000         4.064153471       317.113079127     -1262.253822769     -1258.185918970        10.821867298
         6            6.000000         3.992387947       311.513441604     -1261.940080846     -1257.943287417        10.274024185
         7            7.000000         4.132117502       322.416098182     -1261.845325192     -1257.708104291        10.247887686
         8            8.000000         4.812761945       375.524637674     -1262.482313184     -1257.663594066        10.284163859
         9            9.000000         4.752871825       370.851600467     -1262.112234577     -1257.352277774        10.247141991
        10           10.000000         4.833382331       377.133581355     -1262.051556317     -1257.209726731        10.269546054
        11           11.000000         4.932463382       384.864563291     -1262.002138474     -1257.059587810        10.263644233
        12           12.000000         4.976254373       388.281436275     -1261.766465881     -1256.778181829        10.268310156
        13           13.000000         5.634707160       439.658430823     -1262.465094090     -1256.815938016        10.289164271
        14           14.000000         5.577712393       435.211308896     -1262.234835644     -1256.639630529        10.256506190
        15           15.000000         5.399283165       421.289038885     -1261.927931373     -1256.507689446        10.271338530
        16           16.000000         5.698153386       444.608939712     -1262.311835364     -1256.588754198        10.255940817
        17           17.000000         5.524644266       431.070570239     -1262.029848799     -1256.475755482        10.275581315
        18           18.000000         5.589579110       436.137231379     -1262.199117596     -1256.575133085        10.271181721
        19           19.000000         5.379544799       419.748916434     -1262.067863866     -1256.648564213        10.254705083
        20           20.000000         4.972972520       388.025363602     -1261.631253000     -1256.613109049        10.287789613
        21           21.000000         5.389609605       420.534241530     -1262.339716551     -1256.899227399        10.279502429
        22           22.000000         5.287160871       412.540489857     -1262.341366437     -1256.997108512        10.284487039
        23           23.000000         4.947989108       386.075986724     -1262.127141357     -1257.115807771        10.242793646
        24           24.000000         4.831330059       376.973449069     -1262.323650404     -1257.422822410        10.252374835
        25           25.000000         4.390258604       342.558034344     -1261.911046272     -1257.445380291        10.315103535
        26           26.000000         4.526866121       353.217088067     -1262.293119111     -1257.685122591        10.813128073
        27           27.000000         4.398759360       343.221321505     -1262.327005832     -1257.841390933        10.246918611
        28           28.000000         3.874471457       302.312789746     -1261.824606454     -1257.858021998        10.234416123
        29           29.000000         4.090288216       319.152290889     -1262.267714241     -1258.080394637        10.275925644
        30           30.000000         4.052718978       316.220881740     -1262.255520817     -1258.100875052        10.805895369
        31           31.000000         4.013196239       313.137047056     -1262.259933148     -1258.140103287        10.827775646
        32           32.000000         4.002392923       312.294098314     -1262.348145590     -1258.234596144        10.808875281
        33           33.000000         3.519995608       274.654157123     -1261.683081880     -1258.047844427        10.796211354
        34           34.000000         3.817591653       297.874638025     -1262.055338530     -1258.118744842        10.832678378
        35           35.000000         4.085020516       318.741268852     -1262.302579949     -1258.094699204        10.832699839
        36           36.000000         3.909595477       305.053406291     -1261.926889710     -1257.890675557        10.818031844
        37           37.000000         4.165945302       325.055574762     -1262.186016788     -1257.889816724        10.824267745
        38           38.000000         4.139677191       323.005956891     -1261.922246964     -1257.648696626        10.251132026
        39           39.000000         4.404471043       343.666986132     -1262.064734309     -1257.522780328        10.821988013
        40           40.000000         4.746843391       370.381220799     -1262.366171270     -1257.478037432        10.238626499
        41           41.000000         4.393451025       342.807128876     -1261.706573406     -1257.168028738        10.254979383
        42           42.000000         4.648214124       362.685490085     -1261.889394868     -1257.092368916        10.837810997
        43           43.000000         4.993030568       389.590429840     -1262.136613692     -1256.990802547        10.289606646
        44           44.000000         5.078597275       396.266930188     -1262.032014522     -1256.796409564        10.242687814
        45           45.000000         5.382537197       419.982403776     -1262.343333848     -1256.799276966        10.305389378
        46           46.000000         5.097362038       397.731085440     -1261.848837126     -1256.585267137        10.247865971
        47           47.000000         5.182290309       404.357770608     -1261.891652611     -1256.538436901        10.262154941
        48           48.000000         5.547102641       432.822926476     -1262.354850402     -1256.631758112        10.259252951
        49           49.000000         5.208898606       406.433932084     -1261.863815931     -1256.473653254        10.872847777
        50           50.000000         5.237101676       408.634528729     -1261.992376677     -1256.568754172        10.872936141
        51           51.000000         5.200315710       405.764235777     -1262.007100110     -1256.614889711        10.297354128
        52           52.000000         5.123924855       399.803698298     -1261.946191952     -1256.624949394        10.292073164
        53           53.000000         5.379465010       419.742690747     -1262.436641858     -1256.854242836        10.291364603
        54           54.000000         4.873409035       380.256738841     -1261.924585766     -1256.842638243        10.291642398
        55           55.000000         4.604766788       359.295431504     -1261.760581033     -1256.942074831        10.320972778
        56           56.000000         4.753509077       370.901323219     -1262.141087461     -1257.168742695        10.298526417
        57           57.000000         4.474123891       349.101778202     -1261.911745215     -1257.213784147        10.326250285
        58           58.000000         4.501102307       351.206818930     -1262.149798511     -1257.420057235        10.329017710
        59           59.000000         4.244219289       331.163047113     -1261.984461047     -1257.506989057        10.301144186
        60           60.000000         4.009306216       312.833520770     -1261.763091148     -1257.516279742        10.316183854
        61           61.000000         4.363933956       340.504005063     -1262.350954404     -1257.745333116        10.307101481
        62           62.000000         4.080733282       318.406749495     -1262.037474762     -1257.710912891        10.301799271
        63           63.000000         3.874920984       302.347864932     -1261.858323633     -1257.733778602        10.333385535
        64           64.000000         3.948067535       308.055259645     -1262.027853459     -1257.826562589        10.346762888
        65           65.000000         3.836041347       299.314209432     -1261.833887983     -1257.741159834        10.327992503
        66           66.000000         4.219795104       329.257305002     -1262.317493697     -1257.837547823        10.310259357
        67           67.000000         4.146444151       323.533961373     -1262.154884816     -1257.744748977        10.661623769
        68           68.000000         3.905265944       304.715586479     -1261.761940519     -1257.589631507        10.345184159
        69           69.000000         4.288211018       334.595582983     -1262.216915044     -1257.658332797        10.345302943
        70           70.000000         4.272581933       333.376094734     -1262.038205579     -1257.491795913        10.300894577
        71           71.000000         4.365331915       340.613083346     -1262.040595198     -1257.397954037        10.339919042
        72           72.000000         4.452870189       347.443418822     -1262.041289993     -1257.307540398        10.317825109
        73           73.000000         4.297676558       335.334149185     -1261.604245697     -1257.022114972        10.321009960
        74           74.000000         4.827625231       376.684372980     -1262.160048479     -1257.044212643        10.301433731
        75           75.000000         4.966645081       387.531653503     -1262.187356138     -1256.928337334        10.316500824
        76           76.000000         4.770113716       372.196930836     -1261.799007345     -1256.732215299        10.342967737
        77           77.000000         4.977961957       388.414673665     -1262.037565068     -1256.758473525        10.269200839
        78           78.000000         4.895252484       381.961114289     -1261.778849408     -1256.577788859        10.336094987
        79           79.000000         5.126073402       399.971342633     -1262.042257120     -1256.605456047        10.263347853
        80           80.000000         5.221508232       407.417821443     -1262.194624389     -1256.657090969        10.289846748
        81           81.000000         4.849484431       378.389977424     -1261.680474268     -1256.509589594        10.329378888
        82           82.000000         5.142973384       401.289994908     -1262.108456883     -1256.638592380        10.277704660
        83           83.000000         5.237661324       408.678196271     -1262.255658293     -1256.685197420        10.248258706
        84           84.000000         5.092701122       397.367408829     -1262.118229557     -1256.686629793        10.251989424
        85           85.000000         5.105681335       398.380213948     -1262.291957243     -1256.841171064        10.287035555
        86           86.000000         4.698045642       366.573686330     -1261.822198957     -1256.772929884        10.301794507
        87           87.000000         4.799340740       374.477423343     -1262.089966178     -1256.933403252        10.283905059
        88           88.000000         4.925164694       384.295069716     -1262.390604445     -1257.101999553        10.254587017
        89           89.000000         4.496928181       350.881125018     -1261.946874173     -1257.080402193        10.270646431
        90           90.000000         4.503529408       351.396197969     -1262.143715018     -1257.264811142        10.262307111
        91           91.000000         4.384840721       342.135293955     -1262.099990662     -1257.334035663        10.281044606
        92           92.000000         4.343481449       338.908160397     -1262.109310236     -1257.379119456        10.266339395
        93           93.000000         4.472896423       349.006002760     -1262.403072189     -1257.537864680        10.260773972
        94           94.000000         3.995510095       311.757052958     -1261.855487509     -1257.462325571        10.280396897
        95           95.000000         4.010239049       312.906306830     -1261.934118869     -1257.521288359        10.264198378
        96           96.000000         4.239037388       330.758719691     -1262.258832840     -1257.612227186        10.301527325
        97           97.000000         4.067554252       317.378431399     -1261.993259900     -1257.513202056        10.317266468
        98           98.000000         4.169162811       325.306626807     -1262.178028585     -1257.591560544        10.267756276
        99           99.000000         3.990580543       311.372415623     -1261.908883861     -1257.496320334        10.290345810
       100          100.000000         4.052120439       316.174179583     -1261.891087213     -1257.412471614        10.270837653
       101          101.000000         4.445779447       346.890150635     -1262.342743676     -1257.465783839        10.330392074
       102          102.000000         4.190886840       327.001684304     -1261.907906812     -1257.281095753        10.300259195
       103          103.000000         4.222087148       329.436145923     -1261.871381904     -1257.208794794        10.290464751
       104          104.000000         4.428784377       345.564078884     -1262.011342402     -1257.137391499        10.326111600
       105          105.000000         4.475155605       349.182279566     -1261.915369935     -1256.990243013        10.281013567
       106          106.000000         4.814741544       375.679099545     -1262.275880490     -1257.006125237        10.319531087
       107          107.000000         4.617816782       360.313681376     -1261.928906703     -1256.850869765        10.268690158
       108          108.000000         4.530330056       353.487368016     -1261.737133880     -1256.741476732        10.294938780
       109          109.000000         4.911634026       383.239314332     -1262.171476316     -1256.789194514        10.303827547
       110          110.000000         4.821434959       376.201365604     -1261.927594946     -1256.629912694        10.297077805
       111          111.000000         4.862305279       379.390347768     -1261.979068003     -1256.634834632        10.277615622
       112          112.000000         4.810601480       375.356063384     -1261.927194792     -1256.628881431        10.303143498
       113          113.000000         4.669903990       364.377881944     -1261.700673099     -1256.537296928        10.280026756
       114          114.000000         5.022367077       391.879465163     -1262.187939405     -1256.666136171        10.294866316
       115          115.000000         4.843077745       377.890083932     -1261.984331552     -1256.635619995        10.314430907
       116          116.000000         4.588309670       358.011334415     -1261.741747487     -1256.641790468        10.300175879
       117          117.000000         4.698811094       366.633412109     -1261.985096503     -1256.768680561        10.337978959
       118          118.000000         4.538999647       354.163828859     -1261.815807197     -1256.753237373        10.861312795
       119          119.000000         4.656024227       363.294887834     -1262.062551471     -1256.877004039        10.877896454
       120          120.000000         4.510782099       351.962102552     -1261.995930812     -1256.949666294        10.262044989
       121          121.000000         4.167238406       325.156471557     -1261.644914710     -1256.936561458        10.280542206
       122          122.000000         4.432996446       345.892733394     -1262.091148606     -1257.111519722        10.300987028
       123          123.000000         4.365250793       340.606753661     -1262.060096141     -1257.142598376        10.263726402
       124          124.000000         4.208205492       328.353004115     -1261.949085327     -1257.183198995        10.296493191
       125          125.000000         4.185695588       326.596627293     -1262.079361972     -1257.330728865        10.254875902
       126          126.000000         3.923238246       306.117908505     -1261.758330796     -1257.267149444        10.283670891
       127          127.000000         4.179381265       326.103940576     -1262.112579541     -1257.360359847        10.257155426
       128          128.000000         4.226523589       329.782307445     -1262.184421001     -1257.380048537        10.245856229
       129          129.000000         3.922662595       306.072992248     -1261.785496461     -1257.280183889        10.290517837
       130          130.000000         4.113892007       320.994020287     -1262.060753822     -1257.359571927        10.244782306
       131          131.000000         4.139671559       323.005517420     -1262.046108540     -1257.314449841        10.275214627
       132          132.000000         4.259115535       332.325354173     -1262.142953077     -1257.287123461        10.820112050
       133          133.000000         4.383823101       342.055892324     -1262.294001829     -1257.308626656        10.239259213
       134          134.000000         4.100236521       319.928525742     -1261.849173910     -1257.142643252        10.263168987
       135          135.000000         4.345826506       339.091137815     -1262.102794187     -1257.145993934        10.269730229
       136          136.000000         4.548934869       354.939042911     -1262.274127735     -1257.109290445        10.252888445
       137          137.000000         4.436885981       346.196221499     -1262.032316824     -1256.974508476        10.274285696
       138          138.000000         4.576289359       357.073427499     -1262.211347649     -1257.009067907        10.260938432
       139          139.000000         4.468482738       348.661616853     -1261.979670030     -1256.880060274        10.246022340
       140          140.000000         4.636041138       361.735670342     -1262.112475834     -1256.840095155        10.241138902
       141          141.000000         4.872322196       380.171936240     -1262.386002220     -1256.871818363        10.288849290
       142          142.000000         4.571996684       356.738483605     -1261.937792782     -1256.718335942        10.814849462
       143          143.000000         4.658111631       363.457761361     -1262.054437998     -1256.743327882        10.241977055
       144          144.000000         4.757247583       371.193027063     -1262.140487722     -1256.724517222        10.241154369
       145          145.000000         4.715092733       367.903817017     -1262.048275036     -1256.668608397        10.226926815
       146          146.000000         4.840666613       377.701950889     -1262.275349814     -1256.764117380        10.241058335
       147          147.000000         4.527057234       353.232000030     -1261.900010367     -1256.696418679        10.269444332
       148          148.000000         4.513060024       352.139841868     -1261.914895481     -1256.719503592        10.277459200
       149          149.000000         4.741382758       369.955144795     -1262.275246235     -1256.845566213        10.826529145
       150          150.000000         4.515174545       352.304831287     -1262.029714764     -1256.820215642        10.838654667
       151          151.000000         4.494188438       350.667351554     -1262.118015876     -1256.923613173        10.833447665
       152          152.000000         4.374332599       341.315378335     -1262.048232573     -1256.967881079        10.856882229
       153          153.000000         4.302103591       335.679576668     -1262.000281683     -1256.986497623        10.833835479
       154          154.000000         4.530325118       353.486982682     -1262.378560337     -1257.130818951        10.270501841
       155          155.000000         4.235379781       330.473328129     -1262.050694675     -1257.092205287        10.291809984
       156          156.000000         4.093458514       319.399659237     -1261.959136719     -1257.137203773        10.287986714
       157          157.000000         4.215774873       328.943619015     -1262.175544899     -1257.226014913        10.246677980
       158          158.000000         4.088955011       319.048265119     -1262.025288808     -1257.197356954        10.272023566
       159          159.000000         4.197572778       327.523366978     -1262.227548408     -1257.285857285        10.263847727
       160          160.000000         4.048469961       315.889344307     -1262.060487891     -1257.262838158        10.291636776
       161          161.000000         3.909682032       305.060159884     -1261.871183584     -1257.207511558        10.293294013
       162          162.000000         4.206722413       328.237284081     -1262.269250745     -1257.303723851        10.243435144
       163          163.000000         4.116148717       321.170104217     -1262.104179000     -1257.224335280        10.293639414
       164          164.000000         4.071994275       317.724872393     -1262.035750234     -1257.195300725        10.262894426
       165          165.000000         4.127719382       322.072926758     -1262.074727281     -1257.173841742        10.323846966
       166          166.000000         4.047832495       315.839604843     -1261.881940590     -1257.056291657        10.284591306
       167          167.000000         4.344854821       339.015320328     -1262.223830639     -1257.096434310        10.263875201
       168          168.000000         4.319998030       337.075823303     -1262.143773198     -1257.036355265        10.268896848
       169          169.000000         4.162732213       324.804867542     -1261.877911544     -1256.922982105        10.261511274
       170          170.000000         4.392724190       342.750416223     -1262.147005772     -1256.957283271        10.285714619
       171          171.000000         4.384022661       342.071463324     -1262.023644033     -1256.837679218        10.366679095
       172          172.000000         4.500341842       351.147482257     -1262.126984144     -1256.819667330        10.287544824
       173          173.000000         4.550675195       355.074835006     -1262.162452872     -1256.799624728        10.290770866
       174          174.000000         4.372163612       341.146139144     -1261.878839568     -1256.689362011        10.275274437
       175          175.000000         4.638236866       361.906996088     -1262.220539367     -1256.759741548        10.319377113
       176          176.000000         4.674646915       364.747957379     -1262.237391756     -1256.734682096        10.321681939
       177          177.000000         4.540107058       354.250236622     -1262.050501928     -1256.676801949        10.333234772
       178          178.000000         4.623613229       360.765959861     -1262.208747887     -1256.745977994        10.281767711
       179          179.000000         4.486981922       350.105049775     -1262.027970369     -1256.696232695        10.292912055
       180          180.000000         4.601482330       359.039155550     -1262.207665290     -1256.755794052        10.276657149
       181          181.000000         4.631136879       361.353006480     -1262.290644129     -1256.803332895        10.302981526
       182          182.000000         4.334658509       338.219734245     -1261.949483721     -1256.752974554        10.308662415
       183          183.000000         4.430340512       345.685499206     -1262.160857182     -1256.863108585        10.323228348
       184          184.000000         4.412145802       344.265823339     -1262.179021677     -1256.893847361        10.321581911
       185          185.000000         4.319162797       337.010652698     -1262.114135299     -1256.916384985        10.366270166
       186          186.000000         4.329869151       337.846035758     -1262.237112183     -1257.023156653        10.326926071
       187          187.000000         4.042074814       315.390351204     -1261.934996281     -1257.003528826        10.330575496
       188          188.000000         4.094484220       319.479691886     -1262.065767229     -1257.076793593        10.942692854
       189          189.000000         4.194471083       327.281351466     -1262.249279913     -1257.155183557        10.377909027
       190          190.000000         3.974267389       310.099551604     -1261.983855849     -1257.104944121        10.420830231
       191          191.000000         3.996145964       311.806667852     -1262.062578682     -1257.156962605        10.420265310
       192          192.000000         3.923309662       306.123480898     -1261.981441235     -1257.143938668        10.385444403
       193          193.000000         3.966136918       309.465156576     -1262.037228782     -1257.152273163        10.436318722
       194          194.000000         4.134977238       322.639234357     -1262.272090068     -1257.213612953        10.417740297
       195          195.000000         3.899478287       304.263993867     -1261.959746538     -1257.132168982        10.412926871
       196          196.000000         3.932690174       306.855412647     -1262.004192316     -1257.138990606        10.397446878
       197          197.000000         4.084258702       318.681826889     -1262.158691975     -1257.137471860        10.433306668
       198          198.000000         4.050320916       316.033768529     -1262.056965451     -1257.065208083        10.435945507
       199          199.000000         4.193612074       327.214325696     -1262.239109895     -1257.099562223        10.422184650
       200          200.000000         4.092291150       319.308573542     -1262.040268026     -1256.997533490        10.419072151
       201          201.000000         4.112078275       320.852500517     -1261.998617303     -1256.931656457        10.465328164
       202          202.000000         4.365946349       340.661025732     -1262.267401026     -1256.942000315        10.416420791
       203          203.000000         4.258279527       332.260123093     -1262.061665073     -1256.839255017        10.376932655
       204          204.000000         4.292856902       334.958086638     -1262.087217633     -1256.825577252        10.392778438
       205          205.000000         4.349110472       339.347375340     -1262.150183578     -1256.827565724        10.390737761
       206          206.000000         4.322405914       337.263702911     -1262.052071704     -1256.751386860        10.440688152
       207          207.000000         4.528361603       353.333775857     -1262.307077564     -1256.795531338        10.412058659
       208          208.000000         4.398799108       343.224422894     -1262.121144441     -1256.734147058        10.401832983
       209          209.000000         4.309052614       336.221787001     -1262.005194591     -1256.703008213        10.413696118
       210          210.000000         4.472081806       348.942440744     -1262.229577839     -1256.759354894        10.408150997
       211          211.000000         4.390480731       342.575366167     -1262.065159386     -1256.671431541        10.448989436
       212          212.000000         4.428241002       345.521681068     -1262.168678488     -1256.732066850        10.433820952
       213          213.000000         4.363903046       340.501593250     -1262.138490743     -1256.761065709        10.410232108
       214          214.000000         4.225664071       329.715241948     -1261.947451660     -1256.703205507        10.455900487
       215          215.000000         4.409711320       344.075868415     -1262.233061397     -1256.799674091        10.979599655
       216          216.000000         4.323125752       337.319869563     -1262.148707690     -1256.796724153        10.419513695
       217          217.000000         4.201126381       327.800643347     -1262.026545356     -1256.791487100        10.397862136
       218          218.000000         4.228862027       329.964768397     -1262.116237413     -1256.848432093        10.471356608
       219          219.000000         4.101814667       320.051663481     -1261.970412349     -1256.824711125        11.014138564
       220          220.000000         4.209934642       328.487924203     -1262.160964024     -1256.902237022        10.991461869
       221          221.000000         4.178802879       326.058810905     -1262.152834414     -1256.920300707        10.390419774
       222          222.000000         4.001739197       312.243090139     -1261.931796304     -1256.871529386        10.424041305
       223          223.000000         4.151622135       323.937983145     -1262.159177722     -1256.944290648        10.424086835
       224          224.000000         4.137226582       322.814743583     -1262.127349005     -1256.922065576        10.438375805
       225          225.000000         4.112587668       320.892246794     -1262.110743387     -1256.925351781        10.413025368
       226          226.000000         4.133483485       322.522681505     -1262.178892458     -1256.967885277        10.414091166
       227          227.000000         3.979324560       310.494146747     -1261.937984899     -1256.876518217        10.457509410