#Step Nr.  Time[fs]    Kin.[a.u.]        Temp[K]                 Pot.[a.u.] 
        0	0	3.84483     	300.00000       	-1262.94904
        1	1	3.77922     	294.88075       	-1262.85448
        2	2	3.76058     	293.42611       	-1262.84011
        3	3	3.78344     	295.20996       	-1262.87555
        4	4	3.76576     	293.83066       	-1262.84706
        5	5	3.83089     	298.9119               -1262.94675
        6	6	3.80779     	297.11024       	-1262.92042
        7	7	3.82907     	298.77051       	-1262.92878
        8	8	3.94525     	307.83563       	-1263.14638
        9	9	3.90178     	304.44361       	-1263.08115
        10	10	3.86036     	301.21166       	-1263.05863
        11	11	3.81768     	297.88133       	-1262.99569
        12	12	3.79961     	296.47156       	-1262.96013
        13	13	3.9208       305.92742       	-1263.11421
        14	14	3.91575     	305.53369       	-1263.10819
        15	15	3.89317     	303.77162       	-1263.05365
        16	16	3.95149     	308.32218       	-1263.1277 
        17	17	3.91393     	305.39143       	-1263.05254
        18	18	3.92113     	305.95322       	-1263.06889
        19	19	3.89131     	303.62682       	-1263.04069
        20	20	3.83059     	298.8885               -1262.95623
        21	21	3.95155     	308.32712       	-1263.11081
        22	22	3.99083     	311.39179       	-1263.15699
        23	23	3.95791     	308.82342       	-1263.11677
        24	24	3.95974     	308.96573       	-1263.11845
        25	25	3.9006       304.35165       	-1263.03461
        26	26	3.93778     	307.25243       	-1263.11231
        27	27	3.90924     	305.02543       	-1263.11032
        28	28	3.81372     	297.57231       	-1263.01577
        29	29	3.88047     	302.78053       	-1263.1137 
        30	30	3.90562     	304.74322       	-1263.14901
        31	31	3.91238     	305.27089       	-1263.06331
        32	32	3.89651     	304.03266       	-1263.06121
        33	33	3.773        294.39494       	-1262.91398
        34	34	3.81852     	297.94675       	-1262.97509
        35	35	3.88079     	302.8059               -1263.04665
        36	36	3.82729     	298.63136       	-1262.95067
        37	37	3.84632     	300.11641       	-1263.0386 
        38	38	3.81805     	297.91051       	-1262.96615
        39	39	3.84764     	300.21887       	-1263.03031
        40	40	3.90178     	304.44378       	-1263.11001
        41	41	3.79349     	295.99425       	-1262.95195
        42	42	3.79814     	296.35672       	-1262.94738
        43	43	3.85421     	300.73147       	-1263.01847
        44	44	3.86157     	301.30641       	-1262.92462
        45	45	3.9174       305.6622               -1262.99955
        46	46	3.85799     	301.0264               -1262.946  
        47	47	3.86145     	301.29655       	-1262.92645
        48	48	3.93906     	307.35236       	-1263.06121
        49	49	3.85271     	300.61459       	-1262.94618
        50	50	3.83231     	299.02342       	-1262.95473
        51	51	3.84104     	299.70415       	-1262.91697
        52	52	3.84599     	300.09016       	-1262.87825
        53	53	3.92881     	306.55267       	-1262.96994
        54	54	3.84182     	299.76531       	-1262.87599
        55	55	3.79356     	295.9992               -1262.83855
        56	56	3.86201     	301.34047       	-1262.9048 
        57	57	3.85138     	300.51099       	-1262.87942
        58	58	3.89166     	303.65432       	-1262.91336
        59	59	3.84451     	299.97487       	-1262.86477
        60	60	3.79139     	295.8303               -1262.82022
        61	61	3.89242     	303.71311       	-1262.98744
        62	62	3.85386     	300.70443       	-1262.94531
        63	63	3.79593     	296.18408       	-1262.89329
        64	64	3.81508     	297.67842       	-1262.91913
        65	65	3.79759     	296.31426       	-1262.88075
        66	66	3.88958     	303.49154       	-1262.99561
        67	67	3.88691     	303.28346       	-1262.98809
        68	68	3.79823     	296.36423       	-1262.93183
        69	69	3.84628     	300.11348       	-1262.99336
        70	70	3.81666     	297.80201       	-1262.9344 
        71	71	3.8009       296.57236       	-1263.00548
        72	72	3.81249     	297.4769               -1263.0473 
        73	73	3.76291     	293.60815       	-1262.97217
        74	74	3.86304     	301.4205               -1263.11172
        75	75	3.88114     	302.83306       	-1263.1541 
        76	76	3.80201     	296.65878       	-1263.11045
        77	77	3.83799     	299.46655       	-1263.18745
        78	78	3.80673     	297.02709       	-1263.06027
        79	79	3.83913     	299.55549       	-1263.09784
        80	80	3.88316     	302.99068       	-1263.11888
        81	81	3.8011       296.58759       	-1262.99936
        82	82	3.86814     	301.81857       	-1263.10235
        83	83	3.89313     	303.76864       	-1263.14673
        84	84	3.82302     	298.29837       	-1263.07052
        85	85	3.82396     	298.37159       	-1263.08707
        86	86	3.75884     	293.29006       	-1262.99749
        87	87	3.80804     	297.12971       	-1263.06707
        88	88	3.86062     	301.23212       	-1263.17143
        89	89	3.74893     	292.51739       	-1263.05053
        90	90	3.75333     	292.86068       	-1263.0264 
        91	91	3.7541       292.92078       	-1262.97981
        92	92	3.7382       291.68031       	-1262.95221
        93	93	3.77331     	294.41917       	-1263.04554
        94	94	3.67331     	286.61705       	-1262.91228
        95	95	3.7023       288.87875       	-1262.94579
        96	96	3.80997     	297.28011       	-1263.10753
        97	97	3.7655       293.80979       	-1263.01724
        98	98	3.7852       295.34752       	-1263.04727
        99	99	3.74316     	292.06719       	-1263.00493
        100	100	3.73169     	291.17181       	-1262.96392
        101	101	3.84344     	299.89113       	-1263.13671
        102	102	3.77774     	294.76536       	-1263.02114
        103	103	3.77007     	294.16671       	-1263.03777
        104	104	3.83284     	299.06464       	-1263.11613
        105	105	3.82223     	298.23657       	-1263.03973
        106	106	3.88946     	303.48269       	-1263.12114
        107	107	3.82086     	298.12936       	-1263.01202
        108	108	3.7641       293.70077       	-1262.93958
        109	109	3.87488     	302.3447               -1263.07773
        110	110	3.85976     	301.1651               -1263.04054
        111	111	3.86849     	301.84571       	-1263.05605
        112	112	3.86752     	301.77019       	-1263.06432
        113	113	3.81278     	297.49948       	-1262.97465
        114	114	3.91285     	305.30745       	-1263.07845
        115	115	3.87991     	302.73709       	-1263.00535
        116	116	3.7928       295.94042       	-1262.8828 
        117	117	3.84191     	299.77173       	-1262.96541
        118	118	3.82813     	298.69691       	-1262.91861
        119	119	3.88455     	303.09955       	-1262.98121
        120	120	3.8728       302.18248       	-1262.99355
        121	121	3.74926     	292.54312       	-1262.82274
        122	122	3.81498     	297.67119       	-1262.93661
        123	123	3.82234     	298.24507       	-1262.96037
        124	124	3.78134     	295.04613       	-1262.89412
        125	125	3.80829     	297.14918       	-1262.97207
        126	126	3.73668     	291.56128       	-1262.86247
        127	127	3.80651     	297.00962       	-1262.93158
        128	128	3.85519     	300.80861       	-1262.98077
        129	129	3.75417     	292.92636       	-1262.84378
        130	130	3.79336     	295.98405       	-1262.9386 
        131	131	3.76769     	293.98127       	-1262.9297 
        132	132	3.77847     	294.8223               -1262.93499
        133	133	3.8543       300.7392               -1263.03098
        134	134	3.75985     	293.36912       	-1262.89812
        135	135	3.79389     	296.02509       	-1262.95104
        136	136	3.84141     	299.73278       	-1263.04524
        137	137	3.78091     	295.01287       	-1262.9591 
        138	138	3.8137       297.57107       	-1263.04965
        139	139	3.75941     	293.33454       	-1262.98618
        140	140	3.77194     	294.31236       	-1263.0171 
        141	141	3.86919     	301.90061       	-1263.16325
        142	142	3.78532     	295.35677       	-1263.02757
        143	143	3.79923     	296.44196       	-1263.12478
        144	144	3.83636     	299.33926       	-1263.17643
        145	145	3.81189     	297.42941       	-1263.14011
        146	146	3.88834     	303.3947               -1263.21802
        147	147	3.82208     	298.22448       	-1263.10179
        148	148	3.80106     	296.58455       	-1263.07867
        149	149	3.90087     	304.37242       	-1263.17327
        150	150	3.85189     	300.55071       	-1263.0852 
        151	151	3.87618     	302.44638       	-1263.12993
        152	152	3.87505     	302.35826       	-1263.10089
        153	153	3.83404     	299.15832       	-1263.03908
        154	154	3.93201     	306.80198       	-1263.21136
        155	155	3.86051     	301.22327       	-1263.11845
        156	156	3.79595     	296.18635       	-1263.10844
        157	157	3.84744     	300.20397       	-1263.14655
        158	158	3.81766     	297.87973       	-1263.06799
        159	159	3.88421     	303.073	-       1263.16822	-12
        160	160	3.85178     	300.54211       	-1263.13545
        161	161	3.75683     	293.1335               -1262.95353
        162	162	3.83523     	299.25058       	-1262.99872
        163	163	3.79425     	296.05358       	-1262.93802
        164	164	3.76559     	293.81726       	-1262.93781
        165	165	3.79743     	296.30158       	-1262.9434 
        166	166	3.75097     	292.67667       	-1262.86526
        167	167	3.85187     	300.54924       	-1262.95984
        168	168	3.86001     	301.18436       	-1262.96435
        169	169	3.76404     	293.6964               -1262.8507 
        170	170	3.82168     	298.19399       	-1262.89272
        171	171	3.79863     	296.39504       	-1262.86234
        172	172	3.83195     	298.99485       	-1262.92302
        173	173	3.90144     	304.41697       	-1262.96054
        174	174	3.82662     	298.57897       	-1262.83684
        175	175	3.89792     	304.14236       	-1262.94215
        176	176	3.90847     	304.96578       	-1262.95334
        177	177	3.83377     	299.13702       	-1262.83949
        178	178	3.88373     	303.03492       	-1262.94291
        179	179	3.8213       298.16396       	-1262.85248
        180	180	3.8457       300.06798       	-1262.8818 
        181	181	3.90996     	305.08149       	-1262.96665
        182	182	3.81937     	298.01353       	-1262.843  
        183	183	3.86295     	301.41354       	-1262.9075 
        184	184	3.8525       300.59815       	-1262.88604
        185	185	3.79823     	296.36378       	-1262.81258
        186	186	3.85571     	300.84863       	-1262.90522
        187	187	3.77547     	294.58796       	-1262.81007
        188	188	3.80459     	296.8598               -1262.85502
        189	189	3.88925     	303.46569       	-1263.00213
        190	190	3.82537     	298.48151       	-1262.88831
        191	191	3.87345     	302.23332       	-1262.96335
        192	192	3.84262     	299.8277               -1262.96078
        193	193	3.77768     	294.76063       	-1262.88045
        194	194	3.84203     	299.7816               -1262.9225 
        195	195	3.76688     	293.91805       	-1262.81033
        196	196	3.77886     	294.85291       	-1262.8346 
        197	197	3.84162     	299.74933       	-1262.92461
        198	198	3.77142     	294.2724               -1262.85196
        199	199	3.82918     	298.77907       	-1262.93821
        200	200	3.80383     	296.80105       	-1262.88963
        201	201	3.75346     	292.87075       	-1262.83075
        202	202	3.83263     	299.0484               -1262.96373
        203	203	3.76507     	293.77674       	-1262.87559
        204	204	3.78247     	295.1345               -1262.90938
        205	205	3.8348       299.21717       	-1262.96476
        206	206	3.78509     	295.33889       	-1262.80226
        207	207	3.88418     	303.07016       	-1262.96655
        208	208	3.87409     	302.28315       	-1262.94489
        209	209	3.84056     	299.66676       	-1262.94928
        210	210	3.92653     	306.37473       	-1263.05006
        211	211	3.8623       301.36339       	-1262.95235
        212	212	3.89239     	303.71061       	-1262.96941
        213	213	3.92654     	306.37535       	-1262.97108
        214	214	3.83766     	299.44013       	-1262.84424
        215	215	3.90162     	304.43089       	-1262.94167
        216	216	3.87766     	302.56123       	-1262.94976
        217	217	3.84469     	299.98904       	-1262.87378
        218	218	3.93076     	306.70489       	-1262.9789 
        219	219	3.86953     	301.92687       	-1262.88806
        220	220	3.88248     	302.93785       	-1262.92088
        221	221	3.90413     	304.62667       	-1263.02203
        222	222	3.82391     	298.36768       	-1262.89555
        223	223	3.88955     	303.48904       	-1262.98132
        224	224	3.85813     	301.03741       	-1262.93908
        225	225	3.82461     	298.42201       	-1262.90982
        226	226	3.90156     	304.42624       	-1262.94036
        227	227	3.84662     	300.13953       	-1262.84621
        228	228	3.8902       303.5398               -1262.89011
        229	229	3.90518     	304.70868       	-1262.96016
        230	230	3.82023     	298.08023       	-1262.8402 
        231	231	3.89557     	303.95921       	-1262.95141
        232	232	3.8621       301.34719       	-1262.8913 
        233	233	3.83723     	299.40699       	-1262.85432
        234	234	3.90623     	304.79108       	-1262.95321
        235	235	3.82783     	298.67332       	-1262.90099
        236	236	3.86622     	301.66888       	-1262.97232
        237	237	3.88467     	303.10831       	-1263.0123 
        238	238	3.79854     	296.38809       	-1262.847  
        239	239	3.86157     	301.30631       	-1262.94559
        240	240	3.82657     	298.57487       	-1262.89613
        241	241	3.8132       297.53166       	-1262.9058 
        242	242	3.88562     	303.18262       	-1262.98336
        243	243	3.81301     	297.51748       	-1262.9528 
        244	244	3.85297     	300.63514       	-1263.00969
        245	245	3.87908     	302.67234       	-1263.07928
        246	246	3.81472     	297.65088       	-1262.92636
        247	247	3.89215     	303.69223       	-1262.98736
        248	248	3.86803     	301.81035       	-1262.93099
        249	249	3.86373     	301.47483       	-1262.89331
        250	250	3.92586     	306.32219       	-1262.98528
        251	251	3.8407       299.67768       	-1262.87954
        252	252	3.8831       302.9864               -1262.92389
        253	253	3.90684     	304.83823       	-1262.98275
        254	254	3.84796     	300.24427       	-1262.89827
        255	255	3.91038     	305.11462       	-1262.99333
        256	256	3.8469       300.16157       	-1262.89767
        257	257	3.83737     	299.41763       	-1262.91484
        258	258	3.91509     	305.48225       	-1263.02291
        259	259	3.83611     	299.31934       	-1262.89774
        260	260	3.85192     	300.55325       	-1263.0286 
        261	261	3.84794     	300.24232       	-1263.02909
        262	262	3.80504     	296.89551       	-1262.95352
        263	263	3.89051     	303.5644               -1263.10362
        264	264	3.83683     	299.37593       	-1263.00507
        265	265	3.8095       297.24299       	-1262.96344
        266	266	3.85769     	301.00335       	-1263.03582
        267	267	3.79584     	296.17743       	-1262.95223
        268	268	3.84888     	300.31633       	-1263.02924
        269	269	3.83662     	299.35934       	-1263.06078
        270	270	3.76236     	293.56507       	-1263.01283
        271	271	3.8474       300.20031       	-1263.0832 
        272	272	3.81933     	298.01047       	-1262.99465
        273	273	3.80612     	296.97961       	-1262.9575 
        274	274	3.83742     	299.42145       	-1263.01325
        275	275	3.76294     	293.6103               -1262.91491
        276	276	3.84351     	299.89658       	-1263.01753
        277	277	3.87942     	302.69886       	-1263.08455
        278	278	3.82983     	298.82918       	-1262.97458
        279	279	3.89799     	304.14821       	-1263.09199
        280	280	3.862        301.33943       	-1263.02815
        281	281	3.87782     	302.57407       	-1263.04562
        282	282	3.91717     	305.64449       	-1263.12894
        283	283	3.81169     	297.41422       	-1262.97187
        284	284	3.8363       299.33425       	-1263.0201 
        285	285	3.83923     	299.56315       	-1262.99695
        286	286	3.81715     	297.83979       	-1262.94931
        287	287	3.88915     	303.45787       	-1263.06302
        288	288	3.8192       298.00021       	-1262.90843
        289	289	3.80175     	296.63884       	-1262.86566
        290	290	3.82806     	298.69115       	-1262.8936 
        291	291	3.75048     	292.63797       	-1262.78538
        292	292	3.7927       295.93222       	-1262.82981
        293	293	3.78185     	295.08595       	-1262.81588
        294	294	3.75008     	292.60664       	-1262.80177
        295	295	3.83621     	299.32735       	-1262.94198
        296	296	3.79424     	296.05255       	-1262.87824
        297	297	3.79949     	296.4624               -1262.88847
        298	298	3.82292     	298.29077       	-1262.84212
        299	299	3.74005     	291.82418       	-1262.68859
        300	300	3.79984     	296.48956       	-1262.84252
        301	301	3.80321     	296.75276       	-1262.8432 
        302	302	3.77328     	294.41679       	-1262.79577
        303	303	3.84951     	300.36504       	-1262.93011
        304	304	3.79508     	296.11812       	-1262.86894
        305	305	3.80689     	297.03956       	-1262.90032
        306	306	3.85101     	300.48181       	-1262.92373
        307	307	3.78487     	295.32111       	-1262.84384
        308	308	3.84304     	299.86046       	-1262.92879
        309	309	3.84026     	299.64324       	-1262.92177
        310	310	3.81857     	297.95119       	-1262.87301
        311	311	3.88955     	303.4892               -1262.97526
        312	312	3.8262       298.54666       	-1262.87076
        313	313	3.83046     	298.87885       	-1262.87875
        314	314	3.85624     	300.89048       	-1262.92084
        315	315	3.8004       296.53328       	-1262.85204
        316	316	3.87416     	302.28816       	-1262.95627
        317	317	3.86868     	301.86065       	-1262.94803
        318	318	3.84117     	299.71435       	-1262.85691
        319	319	3.89         303.52422       	-1262.93422
        320	320	3.80746     	297.08417       	-1262.82698
        321	321	3.80682     	297.03446       	-1262.83688
        322	322	3.83298     	299.07498       	-1262.87893
        323	323	3.78348     	295.2132               -1262.8046 
        324	324	3.85907     	301.11081       	-1262.88963
        325	325	3.84036     	299.65131       	-1262.863  
        326	326	3.80133     	296.60552       	-1262.78411
        327	327	3.84668     	300.1446               -1262.85731
        328	328	3.75598     	293.06749       	-1262.7387 
        329	329	3.75628     	293.09087       	-1262.75245
        330	330	3.77106     	294.24403       	-1262.78405
        331	331	3.70798     	289.3218               -1262.69276
        332	332	3.77982     	294.92756       	-1262.79458
        333	333	3.75688     	293.13719       	-1262.77507
        334	334	3.72166     	290.38936       	-1262.71545
        335	335	3.76607     	293.85439       	-1262.78867
        336	336	3.69365     	288.20381       	-1262.71027
        337	337	3.71932     	290.20682       	-1262.73388
        338	338	3.74934     	292.54929       	-1262.78243
        339	339	3.70884     	289.38941       	-1262.69494
        340	340	3.78732     	295.51291       	-1262.78246
        341	341	3.76134     	293.48531       	-1262.75551
        342	342	3.73352     	291.31514       	-1262.72006
        343	343	3.77583     	294.61643       	-1262.66723
        344	344	3.70476     	289.07051       	-1262.61781
        345	345	3.7504       292.63224       	-1262.68352
        346	346	3.79897     	296.42134       	-1262.73401
        347	347	3.76844     	294.03938       	-1262.68869
        348	348	3.83594     	299.30651       	-1262.76552
        349	349	3.79295     	295.95168       	-1262.71583
        350	350	3.75898     	293.30146       	-1262.69297
        351	351	3.80222     	296.67494       	-1262.72209
        352	352	3.73851     	291.70425       	-1262.61931
        353	353	3.77987     	294.93116       	-1262.67586
        354	354	3.81904     	297.98748       	-1262.73368
        355	355	3.79358     	296.00089       	-1262.67459
        356	356	3.86455     	301.53853       	-1262.78043
        357	357	3.80376     	296.79554       	-1262.78109
        358	358	3.75519     	293.0058               -1262.75184
        359	359	3.80011     	296.51039       	-1262.82523
        360	360	3.7582       293.24042       	-1262.75881
        361	361	3.80983     	297.26888       	-1262.81718
        362	362	3.81247     	297.47481       	-1262.85232
        363	363	3.74076     	291.88003       	-1262.75931
        364	364	3.7866       295.45617       	-1262.85566
        365	365	3.74618     	292.30276       	-1262.78357
        366	366	3.72087     	290.32775       	-1262.75472
        367	367	3.7485       292.48376       	-1262.79176
        368	368	3.68932     	287.86635       	-1262.71263
        369	369	3.7467       292.3432               -1262.80046
        370	370	3.77815     	294.79693       	-1262.88877
        371	371	3.72028     	290.28152       	-1262.83061
        372	372	3.74587     	292.27847       	-1262.86875
        373	373	3.69655     	288.4304               -1262.78956
        374	374	3.70957     	289.4458               -1262.77585
        375	375	3.79065     	295.77264       	-1262.8766 
        376	376	3.75427     	292.93375       	-1262.79736
        377	377	3.80169     	296.63371       	-1262.86291
        378	378	3.81693     	297.82314       	-1262.93487
        379	379	3.76967     	294.13544       	-1262.87059
        380	380	3.81381     	297.57937       	-1262.95128
        381	381	3.76748     	293.96473       	-1262.88005
        382	382	3.77334     	294.42172       	-1262.90419
        383	383	3.85506     	300.7982               -1263.0386 
        384	384	3.82514     	298.46396       	-1262.97249
        385	385	3.85893     	301.10031       	-1262.99354
        386	386	3.85988     	301.17431       	-1262.98509
        387	387	3.8187       297.96086       	-1262.96477
        388	388	3.86707     	301.7353               -1263.03611
        389	389	3.81252     	297.4787               -1262.96248
        390	390	3.79187     	295.86763       	-1262.94204
        391	391	3.83677     	299.37116       	-1263.02318
        392	392	3.80711     	297.0565               -1262.94523
        393	393	3.8406       299.67014       	-1263.00064
        394	394	3.79386     	296.02323       	-1262.94672
        395	395	3.70405     	289.01503       	-1262.86069
        396	396	3.74285     	292.04246       	-1262.90223
        397	397	3.71758     	290.07093       	-1262.85829
        398	398	3.72878     	290.9451               -1262.8707 
        399	399	3.76836     	294.03333       	-1262.93139
        400	400	3.6929       288.1451               -1262.88642
        401	401	3.70955     	289.44469       	-1263.01235
        402	402	3.70161     	288.8247               -1263.05219
        403	403	3.6489       284.71213       	-1262.95348
        404	404	3.69476     	288.29047       	-1263.02318
        405	405	3.6662       286.06181       	-1262.95839
        406	406	3.68801     	287.76343       	-1262.98513
        407	407	3.74783     	292.43148       	-1263.04163
        408	408	3.7051       289.0975               -1262.897  
        409	409	3.73382     	291.33844       	-1262.94188
        410	410	3.71231     	289.66014       	-1262.92782
        411	411	3.66081     	285.64159       	-1262.88485
        412	412	3.72122     	290.35532       	-1262.95718
        413	413	3.72212     	290.42501       	-1262.94432
        414	414	3.75442     	292.94553       	-1262.98893
        415	415	3.78618     	295.42389       	-1263.06064
        416	416	3.71843     	290.13715       	-1263.08929
        417	417	3.74319     	292.06961       	-1263.13498
        418	418	3.73741     	291.61856       	-1263.12611
        419	419	3.70968     	289.45449       	-1263.08355
        420	420	3.76655     	293.89187       	-1263.17061
        421	421	3.74697     	292.36401       	-1263.16535
        422	422	3.77474     	294.53135       	-1263.17774
        423	423	3.81545     	297.70752       	-1263.20955
        424	424	3.75133     	292.7041               -1263.09541
        425	425	3.76698     	293.92581       	-1263.11645
        426	426	3.76415     	293.7047               -1263.12701
        427	427	3.75282     	292.82033       	-1263.11273
        428	428	3.81886     	297.97346       	-1263.13542
        429	429	3.79076     	295.78106       	-1263.08657
        430	430	3.79611     	296.19833       	-1263.09263
        431	431	3.8214       298.17192       	-1263.16397
        432	432	3.75506     	292.99543       	-1263.06802
        433	433	3.75699     	293.14582       	-1263.07083
        434	434	3.7295       291.0014               -1263.05998
        435	435	3.72076     	290.31905       	-1263.04636
        436	436	3.79138     	295.82934       	-1263.149  
        437	437	3.75523     	293.00856       	-1263.10193
        438	438	3.74877     	292.50442       	-1263.09915
        439	439	3.76142     	293.49198       	-1263.08119
        440	440	3.72384     	290.55961       	-1263.0183 
        441	441	3.76889     	294.0746               -1262.9972 
        442	442	3.75707     	293.15261       	-1263.00812
        443	443	3.73015     	291.05203       	-1262.98589
        444	444	3.78316     	295.18769       	-1263.07857
        445	445	3.76075     	293.43967       	-1262.98402
        446	446	3.76021     	293.39739       	-1262.94547
        447	447	3.76268     	293.58997       	-1262.94939
        448	448	3.72443     	290.60585       	-1262.94678
        449	449	3.78521     	295.348	-       1263.00317	-12
        450	450	3.79323     	295.97378       	-1263.00514
        451	451	3.76828     	294.02711       	-1262.94878
        452	452	3.8036       296.78289       	-1262.97443
        453	453	3.77875     	294.84372       	-1262.90905
        454	454	3.79099     	295.79873       	-1262.92307
        455	455	3.79282     	295.94204       	-1262.93179
        456	456	3.74655     	292.3312               -1262.85091
        457	457	3.80427     	296.83551       	-1262.92338
        458	458	3.82926     	298.78515       	-1262.94595
        459	459	3.82006     	298.06697       	-1262.91656
        460	460	3.83075     	298.9012               -1262.94172
        461	461	3.7755       294.59	-       1262.85009	-12
        462	462	3.79943     	296.45755       	-1262.88835
        463	463	3.83159     	298.96659       	-1262.93009
        464	464	3.78601     	295.41075       	-1262.90729
        465	465	3.79787     	296.33591       	-1262.94108
        466	466	3.78414     	295.26436       	-1262.92138
        467	467	3.79135     	295.82734       	-1262.92999
        468	468	3.81587     	297.74029       	-1262.97519
        469	469	3.73279     	291.25766       	-1262.8819 
        470	470	3.71649     	289.98628       	-1262.86085
        471	471	3.74455     	292.17527       	-1262.9256 
        472	472	3.73605     	291.51243       	-1262.87102
        473	473	3.76333     	293.64085       	-1262.9049 
        474	474	3.71515     	289.88159       	-1262.84767
        475	475	3.68215     	287.30694       	-1262.80656
        476	476	3.73436     	291.38061       	-1262.87595
        477	477	3.72334     	290.52018       	-1262.83263
        478	478	3.73287     	291.26379       	-1262.84568
        479	479	3.74505     	292.21482       	-1262.92396
        480	480	3.73658     	291.55359       	-1262.94673
        481	481	3.79255     	295.92092       	-1262.99471
        482	482	3.76797     	294.0025               -1262.97564
        483	483	3.72168     	290.39103       	-1262.96662
        484	484	3.73672     	291.56409       	-1262.9739 
        485	485	3.72536     	290.67824       	-1262.98783
        486	486	3.76615     	293.86104       	-1263.02852
        487	487	3.78168     	295.07266       	-1263.04649
        488	488	3.75181     	292.74214       	-1263.03893
        489	489	3.79187     	295.86785       	-1263.06757
        490	490	3.78326     	295.19551       	-1263.05212
        491	491	3.76961     	294.13088       	-1263.0248 
        492	492	3.78788     	295.55598       	-1263.04252
        493	493	3.75684     	293.13411       	-1262.96603
        494	494	3.78905     	295.64731       	-1263.04709
        495	495	3.80399     	296.81353       	-1263.05187
        496	496	3.76657     	293.89331       	-1262.99671
        497	497	3.78659     	295.45538       	-1263.045  
        498	498	3.76613     	293.85944       	-1263.04226
        499	499	3.76765     	293.97805       	-1263.01929
        500	500	3.80732     	297.07302       	-1262.97674
        501	501	3.79209     	295.88474       	-1262.94561
        502	502	3.83472     	299.2109               -1262.98069
        503	503	3.85146     	300.51723       	-1263.00182
        504	504	3.79886     	296.41338       	-1262.90794
        505	505	3.80112     	296.58935       	-1262.92148
        506	506	3.78088     	295.0102               -1262.91233
        507	507	3.79666     	296.24164       	-1262.92611
        508	508	3.8506       300.45034       	-1262.99268
        509	509	3.83291     	299.06999       	-1262.94656
        510	510	3.85715     	300.96146       	-1262.95875
        511	511	3.8619       301.33165       	-1262.99777
        512	512	3.81438     	297.62395       	-1262.91428
        513	513	3.8035       296.77497       	-1262.89826