#     Step Nr.          Time[fs]        Kin.[a.u.]          Temp[K]            Pot.[a.u.]        Cons Qty[a.u.]        UsedTime[s]
         0            0.000000         3.843405441       300.000000000      -992.840262742      -988.996382278         0.000000000
         1            1.000000         4.209408362       328.568642508      -993.366379471      -989.155590804        41.538625993
         2            2.000000         3.919867341       305.968293008      -992.991597880      -989.069377077        10.602807537
         3            3.000000         3.729526923       291.111123733      -992.701443330      -988.968629092        10.591191962
         4            4.000000         4.287737571       334.682689845      -993.490659327      -989.198659304        10.643312186
         5            5.000000         3.806944953       297.154048198      -992.818901387      -989.006644449        10.612038046
         6            6.000000         3.843606591       300.015700924      -992.914420648      -989.064503933        10.661346152
         7            7.000000         4.011147259       313.093217961      -993.176414855      -989.157929281        10.654247485
         8            8.000000         3.663090096       285.925345524      -992.651338112      -988.979884701        10.675346121
         9            9.000000         4.156040165       324.402946445      -993.357754842      -989.192322259        10.649268009
        10           10.000000         3.829944201       298.949272431      -992.951465633      -989.111035006        10.633644931
        11           11.000000         3.513955178       274.284503547      -992.506514246      -988.981068528        10.658999130
        12           12.000000         4.026495168       314.291210944      -993.236974137      -989.198002658        11.198088437
        13           13.000000         3.681604085       287.370469335      -992.717936587      -989.022833389        10.672598056
        14           14.000000         3.844517758       300.086822737      -992.962365458      -989.103369623        10.637044102
        15           15.000000         3.905769856       304.867902863      -993.079975914      -989.158722511        10.670767576
        16           16.000000         3.475461000       271.279810546      -992.439623469      -988.947721170        10.712923944
        17           17.000000         4.075817964       318.141140150      -993.265569969      -989.172379040        10.647098094
        18           18.000000         3.895772796       304.087574607      -993.001658849      -989.087501981        10.654942907
        19           19.000000         3.604208437       281.329291832      -992.614740573      -988.991189464        10.677795507
        20           20.000000         3.985184899       311.066705829      -993.182408912      -989.176942799        10.160906091
        21           21.000000         3.637058349       283.893417303      -992.625741882      -988.967450039        11.076301806
        22           22.000000         3.984756273       311.033249028      -993.082541050      -989.075623475        10.718167312
        23           23.000000         4.089044506       319.173548193      -993.226128242      -989.113916729        10.725276314
        24           24.000000         3.550705144       277.153050744      -992.469499273      -988.894643320        10.678092636
        25           25.000000         4.057181835       316.686482630      -993.187354619      -989.105075274        10.122541547
        26           26.000000         3.927237069       306.543542883      -992.973158577      -989.019803280        10.734373979
        27           27.000000         3.773386849       294.534644345      -992.769112376      -988.968607319        10.698875725
        28           28.000000         4.062042931       317.065919210      -993.259987886      -989.169812944        10.697778873
        29           29.000000         3.551923776       277.248171996      -992.524886113      -988.943822494        10.674837038
        30           30.000000         3.922930649       306.207401935      -993.047588781      -989.094565399        10.692597784
        31           31.000000         4.104849421       320.407213083      -993.330300183      -989.194323447        10.672406591
        32           32.000000         3.575248245       279.068781539      -992.622977389      -989.015578726        10.693060778
        33           33.000000         3.942272025       307.717108070      -993.187054572      -989.211662446        10.722415231
        34           34.000000         3.733820020       291.446224726      -992.867091085      -989.099156260        10.687267840
        35           35.000000         3.723161587       290.614272444      -992.835637126      -989.077411939        10.738437444
        36           36.000000         4.092428548       319.437692189      -993.380460561      -989.251989752        10.680059224
        37           37.000000         3.487485214       272.218369953      -992.549850847      -989.025350153        10.729138486
        38           38.000000         3.760750545       293.548307783      -992.952819351      -989.154170814        10.674033798
        39           39.000000         3.982828216       310.882753090      -993.240602783      -989.218952364        10.670527764
        40           40.000000         3.606868344       281.536912925      -992.698017990      -989.051409864        10.694762915
        41           41.000000         3.962001181       309.257082663      -993.269697182      -989.267071152        10.680481218
        42           42.000000         3.605691432       281.445048180      -992.773927634      -989.126721421        10.719489738
        43           43.000000         3.621050815       282.643936746      -992.767502359      -989.104124132        10.683456130
        44           44.000000         4.116699106       321.332149442      -993.462049703      -989.302186782        10.682229407
        45           45.000000         3.575297786       279.072648468      -992.702942347      -989.083621698        10.719559737
        46           46.000000         3.767233851       294.054367281      -993.017261343      -989.205219598        10.703624226
        47           47.000000         3.878414887       302.732689475      -993.162434099      -989.238411881        10.708224662
        48           48.000000         3.615033946       282.174285375      -992.742746881      -989.081325213        10.142312758
        49           49.000000         4.098851770       319.939061819      -993.442378796      -989.296364213        10.663738213
        50           50.000000         3.671748835       286.601210088      -992.849848361      -989.130128453        10.139587261
        51           51.000000         3.588075488       280.070021974      -992.722273183      -989.085496544        10.734095976
        52           52.000000         4.097293884       319.817459756      -993.394757039      -989.248026457        10.701747619
        53           53.000000         3.694665491       288.389987529      -992.773318498      -989.028443253        10.678588785
        54           54.000000         3.923472464       306.249693738      -993.121183696      -989.146760361        10.703263476
        55           55.000000         3.876624990       302.592977662      -993.060788094      -989.132445042        10.676788531
        56           56.000000         3.577311105       279.229799677      -992.591154714      -988.961392715        10.669942074
        57           57.000000         4.166393337       325.211071333      -993.386332926      -989.166759638        10.720236875
        58           58.000000         3.797775898       296.438350544      -992.862937218      -989.011190750        10.668923661
        59           59.000000         3.636325565       283.836219220      -992.665594592      -988.974564692        10.726261616
        60           60.000000         3.990267181       311.463407273      -993.176343115      -989.130648191        10.728392623
        61           61.000000         3.643748114       284.415592054      -992.621657839      -988.921746762        10.707751572
        62           62.000000         4.008241729       312.866424626      -993.124521990      -989.059403312        10.715478249
        63           63.000000         3.885736613       303.304192515      -993.020636694      -989.077266043        10.715520099
        64           64.000000         3.437038259       268.280693641      -992.393473183      -988.898098414        10.711530641
        65           65.000000         3.993691831       311.730721029      -993.192502888      -989.139817719        10.728567831
        66           66.000000         3.753617414       292.991525724      -992.818704977      -989.005399434        10.680870213
        67           67.000000         3.679861363       287.234439778      -992.757435750      -989.017233501        10.702697471
        68           68.000000         3.889670527       303.611257231      -993.056935563      -989.106285435        11.237942077
        69           69.000000         3.434890552       268.113052663      -992.396386217      -988.899904973        11.262432516
        70           70.000000         3.917615299       305.792508162      -993.066476635      -989.086714538        10.683355309
        71           71.000000         3.923937032       306.285955929      -993.104981527      -989.118301527        10.693270616
        72           72.000000         3.457079813       269.845052723      -992.452728476      -988.932340406        10.709162556
        73           73.000000         3.865934505       301.758523608      -993.082206339      -989.152456824        10.665707260
        74           74.000000         3.618800873       282.468315815      -992.692500209      -989.009377645        10.702626117
        75           75.000000         3.742697236       292.139142751      -992.850072995      -989.042590457        10.702490389
        76           76.000000         3.993159663       311.689182174      -993.237136341      -989.178721359        10.684808843
        77           77.000000         3.417063494       266.721547831      -992.433112767      -988.950334507        10.724913657
        78           78.000000         3.821769697       298.311205132      -993.016604993      -989.128730194        10.147518091
        79           79.000000         3.904710731       304.785232074      -993.105960778      -989.134740248        10.169786453
        80           80.000000         3.596413480       280.720850418      -992.654037841      -988.990719181        10.686067879
        81           81.000000         3.953584424       308.600106158      -993.180254042      -989.159399079        10.717131898
        82           82.000000         3.574526380       279.012435783      -992.628913345      -988.986748261        10.709714800
        83           83.000000         3.755532579       293.141015383      -992.857806824      -989.034315402        10.156368963
        84           84.000000         4.118647959       321.484268678      -993.379913345      -989.192975514        10.664743342
        85           85.000000         3.564328742       278.216451279      -992.599365682      -988.966392145        10.690664001
        86           86.000000         3.857258422       301.081305160      -993.052746226      -989.126533786        10.673794433
        87           87.000000         3.851438191       300.627002484      -993.021120118      -989.100411076        10.674533144
        88           88.000000         3.659928820       285.678589640      -992.712911248      -988.983405590        10.671330787
        89           89.000000         4.080148978       318.479200811      -993.345115180      -989.195095499        10.685141906
        90           90.000000         3.589969134       280.217831951      -992.679279845      -989.019124138        11.210357897
        91           91.000000         3.678788553       287.150700758      -992.828848926      -989.079608652        11.224111304
        92           92.000000         4.064387294       317.248910288      -993.355702736      -989.220606552        10.685392216
        93           93.000000         3.623260254       282.816396239      -992.698600466      -989.004352313        10.698030129
        94           94.000000         3.884078816       303.174791849      -993.121752821      -989.166439396        11.205229186
        95           95.000000         3.722485635       290.561510507      -992.900314868      -989.106346596        10.676588915
        96           96.000000         3.541966441       276.470944488      -992.623570658      -989.009907537        10.682997800
        97           97.000000         4.070879690       317.755679314      -993.356142250      -989.213383843        10.655346021
        98           98.000000         3.612619937       281.985857998      -992.713643297      -989.028939716        10.634855784
        99           99.000000         3.621653959       282.691015613      -992.767516732      -989.073618374        10.686624445
       100          100.000000         3.905118561       304.817065517      -993.158252538      -989.180758931        10.639995076
       101          101.000000         3.559154299       277.812556051      -992.608459369      -988.976803144        10.129319645
       102          102.000000         3.953243131       308.573466254      -993.159083255      -989.133248251        10.678078130
       103          103.000000         3.722497747       290.562455882      -992.851118962      -989.055930688        10.119302690
       104          104.000000         3.450193718       269.307553219      -992.473189006      -988.950235483        10.637258887
       105          105.000000         3.982037614       310.821041994      -993.201685041      -989.146873260        10.674983300
       106          106.000000         3.631835280       283.485726546      -992.683907721      -988.979277368        10.688830376
       107          107.000000         3.680656980       287.296542306      -992.784891394      -989.031450150        10.634534597
       108          108.000000         3.827965443       298.794818910      -993.011670087      -989.110960963        10.646068364
       109          109.000000         3.446493416       269.018723286      -992.438773158      -988.919590336        10.793063842
       110          110.000000         3.931122744       306.846842259      -993.105922697      -989.102222253        10.643025644
       111          111.000000         3.751388103       292.817515086      -992.856857642      -989.033007058        10.725465134
       112          112.000000         3.433390237       267.995944425      -992.430293411      -988.924568713        10.709018528
       113          113.000000         3.861225103       301.390927522      -993.045087034      -989.111719177        10.634247586
       114          114.000000         3.542441772       276.508046788      -992.552855976      -988.938480383        11.195047565
       115          115.000000         3.703842576       289.106312055      -992.778843294      -989.003318133        11.207960233
       116          116.000000         3.816487906       297.898930862      -992.954405405      -989.066524974        11.230976053
       117          117.000000         3.361950988       262.419698324      -992.303999255      -988.870951113        11.193162255
       118          118.000000         3.866866158       301.831244445      -992.995095552      -989.057500520        11.242501579
       119          119.000000         3.782422679       295.239943031      -992.842521060      -988.989769954        11.196164168
       120          120.000000         3.536744713       276.063358443      -992.501545588      -988.894872370        11.197428055
       121          121.000000         3.874243299       302.407072988      -993.016391292      -989.072671958        11.244968832
       122          122.000000         3.517499089       274.561126247      -992.479830721      -988.893318956        10.645956099
       123          123.000000         3.802021849       296.769771483      -992.863555537      -988.993029531        10.702310652
       124          124.000000         3.975954957       310.346255475      -993.126140592      -989.082235130        10.687486917
       125          125.000000         3.463422916       270.340168531      -992.415365913      -988.884515041        10.642439775
       126          126.000000         3.855804377       300.967808525      -992.992571503      -989.069907661        10.667747445
       127          127.000000         3.785153294       295.453083314      -992.862878445      -989.011470633        10.654395431
       128          128.000000         3.672745935       286.679039503      -992.683403705      -988.945008956        10.675990969
       129          129.000000         3.976434636       310.383697256      -993.160413512      -989.118978362        10.644760631
       130          130.000000         3.469902534       270.845940160      -992.462195297      -988.927919993        10.697423398
       131          131.000000         3.710793058       289.648837283      -992.816878272      -989.042374374        10.649853788
       132          132.000000         3.953431373       308.588159656      -993.143410526      -989.127004780        10.642981358
       133          133.000000         3.531596292       275.661494377      -992.549425857      -988.955572802        10.659350917
       134          134.000000         3.840565098       299.778294753      -993.032522285      -989.130454315        10.688778102
       135          135.000000         3.635080489       283.739033896      -992.739138379      -989.043336465        10.655155621
       136          136.000000         3.594562673       280.576384267      -992.652845309      -988.998356868        10.682954066
       137          137.000000         4.008237957       312.866130147      -993.257938531      -989.190654873        10.635505185
       138          138.000000         3.510904834       274.046406589      -992.561616912      -988.992531445        11.195956193
       139          139.000000         3.660946864       285.758053844      -992.789427769      -989.071178083        10.644806050
       140          140.000000         3.867796235       301.903842394      -993.062675741      -989.138538154        10.683390997
       141          141.000000         3.586182413       279.922256535      -992.627233706      -988.985674464        10.673918240
       142          142.000000         3.958824018       309.009086721      -993.192062712      -989.178879319        10.669949628
       143          143.000000         3.666965587       286.227849964      -992.780891394      -989.060594417        10.663931794
       144          144.000000         3.584753189       279.810697375      -992.647344948      -989.010272477        10.716194250
       145          145.000000         4.048269366       315.990812884      -993.275183720      -989.175705425        10.661680147
       146          146.000000         3.647119513       284.678749236      -992.687030705      -988.989809089        10.677657530
       147          147.000000         3.784506798       295.402620613      -992.911564513      -989.078056517        10.714025155
       148          148.000000         3.857675797       301.113883693      -993.014313386      -989.108788936        10.674659811
       149          149.000000         3.591010665       280.299129507      -992.594572037      -988.956848415        10.728656940
       150          150.000000         4.049833546       316.112906191      -993.247168747      -989.151827373        10.137287684
       151          151.000000         3.743634484       292.212300336      -992.822184799      -989.034256822        10.697859056
       152          152.000000         3.584287958       279.774383339      -992.612854460      -988.985437339        10.684892550
       153          153.000000         3.977939642       310.501171642      -993.166514326      -989.146692684        10.716131672
       154          154.000000         3.663309914       285.942503579      -992.688535170      -988.984601833        10.688900426
       155          155.000000         3.881208879       302.950776722      -993.016543064      -989.095983816        10.697938889
       156          156.000000         3.865776123       301.746160963      -993.019167893      -989.115354855        10.713465266
       157          157.000000         3.522851974       274.978949836      -992.519617291      -988.959991979        10.700547412
       158          158.000000         4.014157243       313.328164641      -993.203505211      -989.153914815        11.254646525
       159          159.000000         3.810330148       297.418282297      -992.897608616      -989.053227596        10.711124234
       160          160.000000         3.668824138       286.372920591      -992.721806258      -989.020265182        10.733613372
       161          161.000000         3.931374028       306.866456434      -993.125124095      -989.162421553        10.749946512
       162          162.000000         3.596448881       280.723613703      -992.616791970      -988.990394788        10.852652363
       163          163.000000         3.929092177       306.688344782      -993.064442248      -989.106822105        11.256690972
       164          164.000000         3.947055210       308.090463245      -993.093402143      -989.119304066        10.744944863
       165          165.000000         3.548983658       277.018678807      -992.546093028      -988.971477287        10.712650627
       166          166.000000         3.943307994       307.797971394      -993.118345625      -989.150862143        10.717363223
       167          167.000000         3.764395622       293.832827124      -992.840328435      -989.053257677        10.744696170
       168          168.000000         3.731033930       291.228754283      -992.789211064      -989.036980443        10.710064605
       169          169.000000         3.961015625       309.180154313      -993.131557208      -989.150885766        10.715153180
       170          170.000000         3.553351936       277.359648116      -992.555091157      -988.983588219        10.744491577
       171          171.000000         3.883229704       303.108513795      -993.017919825      -989.118074406        10.700477391
       172          172.000000         3.970280859       309.903359385      -993.116587996      -989.131317841        10.704321705
       173          173.000000         3.624092562       282.881362693      -992.634402037      -988.996885240        10.716191903
       174          174.000000         3.938228443       307.401483085      -993.119168420      -989.169108041        10.718516432
       175          175.000000         3.717398837       290.164456552      -992.774312776      -989.046694547        10.724596798
       176          176.000000         3.791317188       295.934210873      -992.828552974      -989.028621547        10.702613801
       177          177.000000         4.082776749       318.684313541      -993.224298399      -989.134601621        10.735547952
       178          178.000000         3.650361287       284.931788456      -992.600996430      -988.945354695        10.725504957
       179          179.000000         3.925264138       306.389544218      -992.997679483      -989.068766909        10.711445682
       180          180.000000         4.009992458       313.003079072      -993.083717924      -989.071779295        10.720523857
       181          181.000000         3.770386230       294.300428686      -992.720385886      -988.949701552        10.726273075
       182          182.000000         4.068962672       317.606045026      -993.170694185      -989.103099063        10.703992032
       183          183.000000         3.737518828       291.734938094      -992.711101352      -988.976582816        10.713947274
       184          184.000000         3.792648336       296.038114674      -992.769430018      -988.981371311        10.688430786
       185          185.000000         4.139442894       323.107433542      -993.245566873      -989.112393434        10.718730204
       186          186.000000         3.752948542       292.939316364      -992.708332925      -988.963286334        10.699121557
       187          187.000000         3.931976427       306.913477134      -993.001340521      -989.078861457        10.716401026
       188          188.000000         3.897972645       304.259285479      -992.971576801      -989.084716202        11.242005661
       189          189.000000         3.691823223       288.168132078      -992.678677979      -988.999526702        10.715587415
       190          190.000000         4.065514041       317.336859396      -993.225669334      -989.174438545        10.706988707
       191          191.000000         3.740226935       291.946321474      -992.766121367      -989.041772534        11.297944024
       192          192.000000         3.735308386       291.562400326      -992.754429977      -989.036539475        10.709689036
       193          193.000000         4.036623829       315.081811454      -993.163100073      -989.145508864        10.706230856
       194          194.000000         3.748388008       292.583340328      -992.732109965      -989.004347489        10.703709327
       195          195.000000         4.000023647       312.224955798      -993.102178080      -989.124369850        10.746557556
       196          196.000000         3.899558314       304.383056112      -992.966313386      -989.090567054        10.153539225
       197          197.000000         3.665997038       286.152249102      -992.602664427      -988.961998861        10.685367115
       198          198.000000         4.065370177       317.325630004      -993.164886254      -989.126418017        10.685727172
       199          199.000000         3.799127579       296.543857005      -992.783676291      -989.013017543        10.692473285
       200          200.000000         3.791815485       295.973105857      -992.786375163      -989.024540296        10.135325678
       201          201.000000         3.998786008       312.128350947      -993.086074902      -989.118822744        10.739430934
       202          202.000000         3.688346797       287.896776947      -992.608032690      -988.952730763        10.742878884
       203          203.000000         3.974426058       310.226916092      -993.009863402      -989.070000477        10.691201925
       204          204.000000         3.880964282       302.931684519      -992.910122921      -989.065256753        10.709895700
       205          205.000000         3.629940831       283.337853903      -992.525032949      -988.932649652        10.693524331
       206          206.000000         4.005071239       312.618949497      -993.062748894      -989.096740571        11.251249991
       207          207.000000         3.778835349       294.959931268      -992.711824350      -988.973563644        11.253658891
       208          208.000000         3.829327164       298.901109118      -992.785255670      -988.997980711        10.678651974
       209          209.000000         3.977486739       310.465819915      -993.001890465      -989.067965929        10.682653591
       210          210.000000         3.625452209       282.987490987      -992.489816424      -988.909376294        10.764126338
       211          211.000000         3.942755778       307.754867735      -992.924316208      -989.028035262        11.270031363
       212          212.000000         3.884046225       303.172247930      -992.827350935      -988.991273926        11.246410273
       213          213.000000         3.650299239       284.926945238      -992.512527964      -988.911624984        10.692031033
       214          214.000000         3.975803155       310.334406464      -992.977130384      -989.052184091        11.300378263
       215          215.000000         3.755674713       293.152109746      -992.605659293      -988.902300614        11.220312364
       216          216.000000         3.864428415       301.640964529      -992.764050904      -988.953376731        11.254851766
       217          217.000000         4.014331086       313.341734082      -992.990685764      -989.031580638        11.206839554
       218          218.000000         3.627700421       283.162976916      -992.461517655      -988.890440471        10.704122834
       219          219.000000         3.900161769       304.430159265      -992.860524892      -989.018378815        10.657981932
       220          220.000000         3.863080443       301.535747560      -992.795799025      -988.992155776        10.723198228
       221          221.000000         3.698232436       288.668408168      -992.549404884      -988.911982554        10.685275376
       222          222.000000         3.990932959       311.515375111      -992.978970708      -989.050249972        10.670479126
       223          223.000000         3.711078250       289.671098178      -992.564172137      -988.916683713        10.698881775
       224          224.000000         3.842727616       299.947091793      -992.738658891      -988.960875979        10.688917845
       225          225.000000         4.026761868       314.312028456      -993.003496807      -989.043076799        10.700428464
       226          226.000000         3.676735296       286.990432230      -992.496572976      -988.887511344        10.670202881
       227          227.000000         3.916086772       305.673197791      -992.890732940      -989.043637689        10.700789206