#     Step Nr.          Time[fs]        Kin.[a.u.]          Temp[K]            Pot.[a.u.]        Cons Qty[a.u.]        UsedTime[s]
      1501         1501.000000         3.884233014       303.074453265     -1538.174651414     -1530.571829957        54.323765315
      1502         1502.000000         3.910764081       305.144588742     -1538.212473010     -1530.584031232        13.081355117
      1503         1503.000000         3.910667727       305.137070587     -1538.168236301     -1530.540791839        13.095859677
      1504         1504.000000         3.913442448       305.353573301     -1538.170802871     -1530.541471351        13.099725794
      1505         1505.000000         3.899360165       304.254777192     -1538.239865850     -1530.625489363        12.435474921
      1506         1506.000000         3.891174324       303.616061775     -1538.224897103     -1530.619565413        13.147421621
      1507         1507.000000         3.930218334       306.662542736     -1538.346025697     -1530.702501611        13.140776075
      1508         1508.000000         3.915808727       305.538206581     -1538.328017417     -1530.699741118        13.102591593
      1509         1509.000000         3.872933974       302.192824840     -1538.278912483     -1530.694329282        13.146541677
      1510         1510.000000         3.848375434       300.276599373     -1538.255197258     -1530.695977695        12.482856311
      1511         1511.000000         3.848951573       300.321553666     -1538.250086217     -1530.691091739        13.114646554
      1512         1512.000000         3.894994001       303.914099162     -1538.301673089     -1530.697440254        12.473725669
      1513         1513.000000         3.889764164       303.506031490     -1538.317457006     -1530.719253461        13.145686034
      1501         1501.000000         3.884233014       303.074453265     -1538.174651414     -1530.571829957        54.287212592
      1502         1502.000000         3.910764081       305.144588742     -1538.212473010     -1530.584031232        13.071859743
      1503         1503.000000         3.910667727       305.137070587     -1538.168236301     -1530.540791839        13.087099049
      1504         1504.000000         3.913442448       305.353573301     -1538.170802871     -1530.541471351        13.111576073
      1505         1505.000000         3.899360165       304.254777192     -1538.239865850     -1530.625489363        12.474241748
      1506         1506.000000         3.891174324       303.616061775     -1538.224897103     -1530.619565413        13.125548225
      1507         1507.000000         3.930218334       306.662542736     -1538.346025697     -1530.702501611        13.105099432
      1508         1508.000000         3.915808727       305.538206581     -1538.328017417     -1530.699741118        13.092186954
      1509         1509.000000         3.872933974       302.192824840     -1538.278912483     -1530.694329282        13.158878192
      1510         1510.000000         3.848375434       300.276599373     -1538.255197258     -1530.695977695        12.469496656
      1511         1511.000000         3.848951573       300.321553666     -1538.250086217     -1530.691091739        13.089622036
      1512         1512.000000         3.894994001       303.914099162     -1538.301673089     -1530.697440254        12.419697165
      1513         1513.000000         3.889764164       303.506031490     -1538.317457006     -1530.719253461        13.124683544
      1514         1514.000000         3.854255135       300.735373923     -1538.305715774     -1530.743808247        13.081028335
      1515         1515.000000         3.876596061       302.478565871     -1538.332779507     -1530.749313363        13.151602577
      1516         1516.000000         3.889295627       303.469472972     -1538.296615386     -1530.701229384        13.143414237
      1517         1517.000000         3.894925023       303.908717035     -1538.308545178     -1530.708302543        13.128292456
      1518         1518.000000         3.890957580       303.599149947     -1538.304155551     -1530.708643436        13.134285428
      1519         1519.000000         3.876096554       302.439590912     -1538.223565360     -1530.643666520        12.428282786
      1520         1520.000000         3.919733858       305.844472160     -1538.262306667     -1530.639517785        12.430137798
      1521         1521.000000         3.929573697       306.612243786     -1538.272732818     -1530.640842146        12.450121220
      1522         1522.000000         3.885797331       303.196511958     -1538.195604751     -1530.608209550        12.429845802
      1523         1523.000000         3.864039074       301.498783802     -1538.181080746     -1530.616148149        12.409752265
      1524         1524.000000         3.843007632       299.857766741     -1538.196344441     -1530.653139980        12.429440569
      1525         1525.000000         3.845570753       300.057758989     -1538.167012317     -1530.621939653        12.404649984
      1526         1526.000000         3.839645076       299.595397051     -1538.167110560     -1530.628658378        12.428323261
      1527         1527.000000         3.802986914       296.735076287     -1538.127836326     -1530.626735186        12.419067841
      1528         1528.000000         3.826585282       298.576382537     -1538.217470257     -1530.693469408        12.409812134
      1529         1529.000000         3.855824876       300.857855829     -1538.238037565     -1530.685504274        12.464390770
      1530         1530.000000         3.841255627       299.721063322     -1538.218108073     -1530.680851587        12.419971485
      1531         1531.000000         3.814534933       297.636131792     -1538.192265971     -1530.682435112        12.439185951
      1532         1532.000000         3.782041803       295.100795328     -1538.162966737     -1530.686334775        12.430162236
      1533         1533.000000         3.807235247       297.066560298     -1538.229723095     -1530.728613936        12.429893088
      1534         1534.000000         3.846198097       300.106708624     -1538.225489019     -1530.686146624        12.419208962
      1535         1535.000000         3.841974152       299.777127543     -1538.211654859     -1530.677270312        12.410967704
      1536         1536.000000         3.862288239       301.362171680     -1538.224163902     -1530.670200841        12.444519974
      1537         1537.000000         3.898362134       304.176903914     -1538.257827649     -1530.668527899        12.421616212
      1538         1538.000000         3.932466878       306.837989541     -1538.279551309     -1530.656880004        12.415696330
      1539         1539.000000         3.940106918       307.434117833     -1538.281928140     -1530.652336814        12.451576862
      1540         1540.000000         3.892142605       303.691613678     -1538.262237015     -1530.681308543        12.399058059
      1541         1541.000000         3.888507295       303.407961908     -1538.257435128     -1530.680825364        13.101170555
      1542         1542.000000         3.937866338       307.259292445     -1538.309806660     -1530.684515185        12.454519503
      1543         1543.000000         3.959995734       308.985979428     -1538.353215863     -1530.706460291        12.419382535
      1544         1544.000000         3.963424961       309.253551163     -1538.432305760     -1530.782765364        13.113424055
      1545         1545.000000         3.945273466       307.837247284     -1538.410520421     -1530.779751089        13.131489623
      1546         1546.000000         3.950689958       308.259878998     -1538.415658143     -1530.780069836        13.143926810
      1547         1547.000000         3.986244630       311.034098008     -1538.412098850     -1530.741534028        13.131745420
      1548         1548.000000         3.961798397       309.126635535     -1538.381656750     -1530.736089695        13.104313873
      1549         1549.000000         3.925764002       306.314985298     -1538.341629776     -1530.732620958        13.062392000
      1550         1550.000000         3.926761601       306.392824773     -1538.341610804     -1530.732108607        13.082704712
      1551         1551.000000         3.946169577       307.907167990     -1538.359486553     -1530.731064858        12.394460920
      1552         1552.000000         3.969908329       309.759427945     -1538.388457302     -1530.736767242        13.073029924
      1553         1553.000000         3.939972135       307.423601129     -1538.354903051     -1530.733595103        13.081403755
      1554         1554.000000         3.901258237       304.402877737     -1538.313638859     -1530.731467884        13.097539254
      1555         1555.000000         3.911328704       305.188644542     -1538.368496274     -1530.776663844        13.056691356
      1556         1556.000000         3.918445476       305.743943755     -1538.383314910     -1530.784762369        13.041625947
      1557         1557.000000         3.909525619       305.047955446     -1538.383480089     -1530.794229616        13.101596575
      1558         1558.000000         3.888646691       303.418838552     -1538.367143844     -1530.799140452        13.028220519
      1559         1559.000000         3.876568652       302.476427247     -1538.403776764     -1530.848209146        13.116543416
      1560         1560.000000         3.906868961       304.840664821     -1538.439480323     -1530.853963677        13.074239153
      1561         1561.000000         3.910779594       305.145799227     -1538.443466853     -1530.854380678        13.129957184
      1562         1562.000000         3.872138321       302.130742509     -1538.402046553     -1530.851929194        13.736220617
      1563         1563.000000         3.855635971       300.843116153     -1538.384423252     -1530.851127623        13.802407298
      1564         1564.000000         3.860634866       301.233164192     -1538.379226860     -1530.841248742        13.745890900
      1565         1565.000000         3.890162722       303.537129681     -1538.396901715     -1530.829709971        13.787698399
      1566         1566.000000         3.896460261       304.028506754     -1538.389609795     -1530.816427822        13.784561772
      1567         1567.000000         3.866348179       301.678956007     -1538.398747571     -1530.855974767        15.082146417
      1568         1568.000000         3.875782359       302.415075303     -1538.427538168     -1530.875622354        15.142409623
      1569         1569.000000         3.889227655       303.464169365     -1538.389868135     -1530.824792913        13.798743233
      1570         1570.000000         3.874906065       302.346700818     -1538.357036634     -1530.806560809        13.767377291
      1571         1571.000000         3.860229568       301.201540053     -1538.353520314     -1530.817991916        13.093341410
      1572         1572.000000         3.842616087       299.827215657     -1538.322421478     -1530.804773552        13.813485667
      1573         1573.000000         3.869623058       301.934484474     -1538.350415277     -1530.806027224        13.768467564
      1574         1574.000000         3.910198824       305.100483536     -1538.362794796     -1530.778094998        13.810013913
      1575         1575.000000         3.895333293       303.940573063     -1538.339419845     -1530.769838828        13.164154012
      1576         1576.000000         3.890237368       303.542954093     -1538.336371163     -1530.772128390        13.831721488
      1577         1577.000000         3.905353074       304.722384932     -1538.326226474     -1530.747101092        13.170136791
      1578         1578.000000         3.909495283       305.045588423     -1538.322886386     -1530.739840631        13.853648078
      1579         1579.000000         3.914759554       305.456342932     -1538.330246400     -1530.742145463        13.162219666
      1580         1580.000000         3.902304052       304.484479357     -1538.307858506     -1530.732408375        13.110071141
      1581         1581.000000         3.916372927       305.582229304     -1538.335369978     -1530.746034099        13.176072367
      1582         1582.000000         3.965983437       309.453180970     -1538.415248619     -1530.776471394        13.114126295
      1583         1583.000000         3.971416025       309.877068684     -1538.393445307     -1530.749382130        13.112521835
      1584         1584.000000         3.954338567       308.544568486     -1538.377470972     -1530.750606290        13.172352910
      1585         1585.000000         3.957153818       308.764233638     -1538.377641709     -1530.748059627        13.115622524
      1586         1586.000000         3.972186486       309.937185330     -1538.413661222     -1530.769121129        13.142904796
      1587         1587.000000         3.999370576       312.058274155     -1538.492066948     -1530.820391142        13.114864238
      1588         1588.000000         3.979994240       310.546399725     -1538.467619754     -1530.815337916        13.122434419
      1589         1589.000000         3.945910122       307.886923540     -1538.431009474     -1530.812801793        13.809536889
      1590         1590.000000         3.963327296       309.245930706     -1538.399613480     -1530.763956509        13.157731742
      1591         1591.000000         3.980894665       310.616657089     -1538.407190498     -1530.753909372        13.773919072
      1592         1592.000000         3.998686186       312.004873348     -1538.426337820     -1530.755179822        13.792770136
      1593         1593.000000         3.992959594       311.558045448     -1538.388885135     -1530.723336811        13.824663494
      1594         1594.000000         3.994659790       311.690706408     -1538.383612630     -1530.716216155        13.797587425
      1595         1595.000000         4.057431561       316.588589746     -1538.451459009     -1530.721108415        13.808989987
      1596         1596.000000         4.082127190       318.515511730     -1538.484889280     -1530.729614579        13.813054204
      1597         1597.000000         4.061048816       316.870832678     -1538.445632040     -1530.711157922        13.796146791
      1598         1598.000000         4.047775815       315.835182279     -1538.443700032     -1530.722176204        13.829056632
      1599         1599.000000         4.032882136       314.673075503     -1538.429915779     -1530.722921121        13.127783764
      1600         1600.000000         4.048916860       315.924214411     -1538.451792586     -1530.728357922        13.149554085
      1601         1601.000000         4.047725467       315.831253802     -1538.435803853     -1530.713111677        13.209351193
      1602         1602.000000         4.006059199       312.580166328     -1538.382606389     -1530.701092157        13.198790997
      1603         1603.000000         4.006807358       312.638542790     -1538.404351396     -1530.721567981        13.152242519
      1604         1604.000000         4.006510866       312.615408471     -1538.375041258     -1530.691999107        13.179239888
      1605         1605.000000         3.980705827       310.601922645     -1538.344282732     -1530.686458846        13.143315293
      1606         1606.000000         3.954812487       308.581546987     -1538.379931472     -1530.747389442        13.836277530
      1607         1607.000000         3.895746328       303.972800848     -1538.314938975     -1530.740836106        13.875221562
      1608         1608.000000         3.879755913       302.725119194     -1538.260961575     -1530.702216253        13.860349387
      1609         1609.000000         3.889832655       303.511375626     -1538.310695967     -1530.741233352        13.128348075
      1610         1610.000000         3.856992911       300.948993904     -1538.266452684     -1530.729182733        13.131821819
      1611         1611.000000         3.865625410       301.622560567     -1538.227856620     -1530.681305203        13.147086296
      1612         1612.000000         3.884862934       303.123603901     -1538.247082027     -1530.680636907        13.118870240
      1613         1613.000000         3.893016369       303.759790740     -1538.253585079     -1530.678319813        13.153037503
      1614         1614.000000         3.902936073       304.533793998     -1538.282116752     -1530.696253314        13.178232707
      1615         1615.000000         3.872354751       302.147629837     -1538.343240134     -1530.787270253        14.504615434
      1616         1616.000000         3.882281145       302.922155045     -1538.355760520     -1530.789171349        14.502869934
      1617         1617.000000         3.917871759       305.699178462     -1538.399189651     -1530.796304277        14.556925487
      1618         1618.000000         3.918733772       305.766438625     -1538.440108901     -1530.835638280        13.826803699
      1619         1619.000000         3.927383395       306.441341451     -1538.427290211     -1530.813430216        13.827601485
      1620         1620.000000         3.915155458       305.487234055     -1538.424134412     -1530.821746299        13.790119421
      1621         1621.000000         3.929804267       306.630234462     -1538.422176950     -1530.804368353        13.840094797
      1622         1622.000000         3.971068396       309.849944290     -1538.477093203     -1530.817224807        13.101346247
      1623         1623.000000         3.939507357       307.387335918     -1538.436793501     -1530.807665129        14.516646776
      1624         1624.000000         3.912891084       305.310552104     -1538.410835099     -1530.807488247        14.494981971
      1625         1625.000000         3.919516475       305.827510437     -1538.422392260     -1530.811572374        13.798059639
      1626         1626.000000         3.930559334       306.689149925     -1538.478122633     -1530.855394699        15.193288557
      1627         1627.000000         3.954787339       308.579584774     -1538.563880922     -1530.916037725        15.163517721
      1628         1628.000000         3.919473242       305.824137124     -1538.499350451     -1530.885914156        15.148369968
      1629         1629.000000         3.876724263       302.488569119     -1538.457124307     -1530.885523635        15.839333616
      1630         1630.000000         3.891556317       303.645867522     -1538.522266703     -1530.934915799        15.168495972
      1631         1631.000000         3.881052817       302.826312502     -1538.518868052     -1530.941093011        15.209128954
      1632         1632.000000         3.871047657       302.045641457     -1538.508429628     -1530.939727120        15.206382912
      1633         1633.000000         3.855610327       300.841115245     -1538.448250574     -1530.894050602        14.449646249
      1634         1634.000000         3.842810898       299.842416187     -1538.370736413     -1530.828402198        13.769805942
      1635         1635.000000         3.900618322       304.352947153     -1538.442248027     -1530.841165830        13.836967785
      1636         1636.000000         3.916987241       305.630162296     -1538.379804278     -1530.761393281        13.108405411
      1637         1637.000000         3.895466090       303.950934789     -1538.352003671     -1530.754140891        13.848489191
      1638         1638.000000         3.905836762       304.760125612     -1538.313353281     -1530.704137210        13.138592560
      1639         1639.000000         3.909668428       305.059098402     -1538.313496021     -1530.699451691        13.090719089
      1640         1640.000000         3.943308733       307.683945346     -1538.354746134     -1530.706046180        13.100189880
      1641         1641.000000         3.949381109       308.157753675     -1538.420402269     -1530.764590094        13.116965186
      1642         1642.000000         3.924340762       306.203934388     -1538.374768226     -1530.742938591        13.085016593
      1643         1643.000000         3.954903093       308.588616667     -1538.415190233     -1530.751722137        13.786712900
      1644         1644.000000         3.980852393       310.613358756     -1538.443313383     -1530.752789748        13.124228418
      1645         1645.000000         3.988484793       311.208890801     -1538.439659090     -1530.740364689        13.097665459
      1646         1646.000000         3.976500360       310.273783329     -1538.429477286     -1530.741000651        13.143983562
      1647         1647.000000         3.926068958       306.338780026     -1538.370909197     -1530.731680757        13.109799724
      1648         1648.000000         3.911278829       305.184752922     -1538.388346153     -1530.762717335        13.097572878
      1649         1649.000000         3.903327858       304.564363702     -1538.380164032     -1530.761285939        13.129504617
      1650         1650.000000         3.880236282       302.762600858     -1538.346703458     -1530.749710557        13.133162301
      1651         1651.000000         3.902049846       304.464644497     -1538.377675624     -1530.757655269        13.132551171
      1652         1652.000000         3.919173303       305.800733860     -1538.383748887     -1530.745374263        13.127279777
      1653         1653.000000         3.935821955       307.099775678     -1538.404849003     -1530.748575162        13.163130473
      1654         1654.000000         3.953317785       308.464920092     -1538.424511639     -1530.749468079        13.133305967
      1655         1655.000000         3.929898300       306.637571499     -1538.410644753     -1530.757727453        13.136702228
      1656         1656.000000         3.937601439       307.238623149     -1538.492143147     -1530.830214790        13.179740228
      1657         1657.000000         3.942086093       307.588546619     -1538.461607785     -1530.793866932        13.126741845
      1658         1658.000000         3.920329935       305.890982186     -1538.494603011     -1530.847275291        13.823697463
      1659         1659.000000         3.940218799       307.442847516     -1538.382435340     -1530.713860720        13.847215801
      1660         1660.000000         3.953437273       308.474243372     -1538.433684434     -1530.750509457        14.589265753
      1661         1661.000000         3.975355580       310.184459775     -1538.503390767     -1530.796888203        13.838936612
      1662         1662.000000         3.985072177       310.942615133     -1538.368753108     -1530.651093837        13.188868258
      1663         1663.000000         3.939342378       307.374463177     -1538.260040831     -1530.586651927        13.166629225
      1664         1664.000000         3.933005600       306.880024341     -1538.259367719     -1530.590847067        12.437285457
      1665         1665.000000         3.930053095       306.649649717     -1538.259647763     -1530.592596519        12.462811541
      1666         1666.000000         3.903348756       304.565994319     -1538.229798081     -1530.587958851        12.480494585
      1667         1667.000000         3.894840510       303.902122742     -1538.207550553     -1530.572723641        12.448123753
      1668         1668.000000         3.873743571       302.255995125     -1538.193526471     -1530.578298591        13.131097354
      1669         1669.000000         3.883975463       303.054357412     -1538.200054076     -1530.573094082        12.430925343
      1670         1670.000000         3.900421827       304.337615331     -1538.225301298     -1530.580383793        12.437671393
      1671         1671.000000         3.855438733       300.827726323     -1538.157773556     -1530.556326285        12.447570764
      1672         1672.000000         3.825724518       298.509219798     -1538.161831917     -1530.588600523        13.131310195
      1673         1673.000000         3.832167384       299.011936353     -1538.184385894     -1530.603223260        12.466796782
      1674         1674.000000         3.868392278       301.838450565     -1538.218096482     -1530.599216661        13.141563404
      1675         1675.000000         3.918316404       305.733872678     -1538.221964433     -1530.551649026        12.458042588
      1676         1676.000000         3.895002302       303.914746821     -1538.206108790     -1530.557580540        12.443429954
      1677         1677.000000         3.872660256       302.171467457     -1538.193589273     -1530.565877668        13.120976966
      1678         1678.000000         3.883030049       302.980589720     -1538.210402217     -1530.570794167        13.157057051
      1679         1679.000000         3.873000939       302.198049865     -1538.221914816     -1530.590804867        12.437365983
      1680         1680.000000         3.867290898       301.752513409     -1538.203079541     -1530.576148899        12.441557914
      1681         1681.000000         3.840747281       299.681398659     -1538.237441174     -1530.635528796        13.170492057
      1682         1682.000000         3.844281388       299.957153896     -1538.240510235     -1530.633546030        13.098595943
      1683         1683.000000         3.910452839       305.120303510     -1538.348408118     -1530.673742573        13.152987376
      1684         1684.000000         3.921403761       305.974769449     -1538.365169890     -1530.677999504        13.118225731
      1685         1685.000000         3.894762322       303.896021932     -1538.284261570     -1530.622170416        12.478502944
      1686         1686.000000         3.876256316       302.452056664     -1538.268321616     -1530.623176217        13.120896287
      1687         1687.000000         3.853530106       300.678802186     -1538.240909815     -1530.616935709        13.114246186
      1688         1688.000000         3.864742544       301.553673360     -1538.258672359     -1530.621933921        12.415860232
      1689         1689.000000         3.851539145       300.523453773     -1538.223271097     -1530.598184521        12.441495497
      1690         1690.000000         3.833669644       299.129152983     -1538.212431921     -1530.603671686        12.422222100
      1691         1691.000000         3.861325244       301.287032243     -1538.190776038     -1530.552819559        12.462018266
      1692         1692.000000         3.871185860       302.056425004     -1538.161362978     -1530.511998271        12.441936582
      1693         1693.000000         3.872640453       302.169922291     -1538.164483970     -1530.512113138        12.425970696
      1694         1694.000000         3.863688707       301.471445764     -1538.199607050     -1530.554636067        12.451257959
      1695         1695.000000         3.840632584       299.672449213     -1538.165158600     -1530.541698310        12.450045936
      1696         1696.000000         3.860165677       301.196554873     -1538.196658963     -1530.552124118        12.436830807
      1697         1697.000000         3.857099333       300.957297678     -1538.290810957     -1530.647798690        13.142782882
      1698         1698.000000         3.825181903       298.466881307     -1538.262533961     -1530.649904120        13.109407306
      1699         1699.000000         3.839870521       299.612987850     -1538.312458500     -1530.683614735        13.146740828
      1700         1700.000000         3.856805307       300.934355777     -1538.351679027     -1530.704373313        13.166937381
      1701         1701.000000         3.875015197       302.355216104     -1538.373917325     -1530.706868657        13.210292693
      1702         1702.000000         3.871414428       302.074259387     -1538.287663378     -1530.622677514        12.468952898
      1703         1703.000000         3.827216646       298.625645888     -1538.232605748     -1530.610288393        13.163899545
      1704         1704.000000         3.839121923       299.554577060     -1538.270587930     -1530.634848057        13.138131525
      1705         1705.000000         3.877968945       302.585687748     -1538.293074866     -1530.616964660        12.428902548
      1706         1706.000000         3.898131221       304.158886514     -1538.290492784     -1530.592682644        12.440084171
      1707         1707.000000         3.897258545       304.090794366     -1538.286362040     -1530.587876389        12.459050283
      1708         1708.000000         3.864997051       301.573531716     -1538.247760940     -1530.579988950        13.128198985
      1709         1709.000000         3.873728439       302.254814421     -1538.260136996     -1530.582088948        12.484189983
      1710         1710.000000         3.885666127       303.186274545     -1538.274064873     -1530.582528021        12.444811940
      1711         1711.000000         3.855348418       300.820679354     -1538.212211351     -1530.549441212        13.174419437
      1712         1712.000000         3.848949955       300.321427445     -1538.189915323     -1530.532000896        13.128686201
      1713         1713.000000         3.852860697       300.626570270     -1538.220117695     -1530.556752795        12.477826182
      1714         1714.000000         3.871332045       302.067831308     -1538.238501454     -1530.555122637        12.484714430
      1715         1715.000000         3.906579355       304.818067804     -1538.281675857     -1530.561494291        12.450408451