#     Step Nr.          Time[fs]        Kin.[a.u.]          Temp[K]            Pot.[a.u.]        Cons Qty[a.u.]        UsedTime[s]
         0            0.000000         3.843405441       300.000000000     -1250.953928643     -1247.110048179         0.000000000
         1            1.000000         3.670631422       286.513989582     -1250.734584416     -1247.062646741        52.616225163
         2            2.000000         3.567490178       278.463219555     -1250.625532885     -1247.055966536        13.586720454
         3            3.000000         3.637935747       283.961903258     -1250.721570843     -1247.080840346        13.551729780
         4            4.000000         3.644766999       284.495121965     -1250.675647206     -1247.027399444        13.589601221
         5            5.000000         3.772905658       294.497084576     -1250.834757356     -1247.057707638        13.615983848
         6            6.000000         3.740574680       291.973464930     -1250.774687959     -1247.029314822        13.560573708
         7            7.000000         3.746579174       292.442150423     -1250.751815499     -1246.999804759        13.581063740
         8            8.000000         3.966528227       309.610444763     -1251.022025730     -1247.049427606        13.599028967
         9            9.000000         3.886051018       303.328733650     -1250.894947814     -1247.002159422        12.863237904
        10           10.000000         3.770997125       294.348112558     -1250.783451508     -1247.005058252        13.609854734
        11           11.000000         3.749126830       292.641009672     -1250.784620325     -1247.027462038        13.556413459
        12           12.000000         3.762110829       293.654485791     -1250.774955490     -1247.004195967        13.633103540
        13           13.000000         4.012313597       313.184257408     -1251.072731018     -1247.051139939        12.900802184
        14           14.000000         4.010567394       313.047956198     -1251.049779357     -1247.029256659        12.912541546
        15           15.000000         3.890930296       303.709589453     -1250.891950984     -1246.990366193        12.906563537
        16           16.000000         3.988375086       311.315718355     -1251.092668321     -1247.092925646        13.593237979
        17           17.000000         3.957086718       308.873480465     -1251.075452450     -1247.106252059        13.597740885
        18           18.000000         3.937048076       307.309348675     -1251.048475119     -1247.098547967        13.562880389
        19           19.000000         3.843241304       299.987188157     -1250.914156896     -1247.057264566        13.642780371
        20           20.000000         3.731628583       291.275170408     -1250.807831342     -1247.061800047        14.259889767
        21           21.000000         3.975692317       310.325754952     -1251.187743999     -1247.196897113        14.312223095
        22           22.000000         4.055248170       316.535548894     -1251.180599129     -1247.109388964        14.246646300
        23           23.000000         3.936267759       307.248440377     -1251.039580020     -1247.086507503        14.979394522
        24           24.000000         3.895548607       304.070075372     -1250.993451159     -1247.080250212        14.244334871
        25           25.000000         3.789499531       295.792332230     -1250.870598180     -1247.062605149        14.253248859
        26           26.000000         3.884495911       303.207348567     -1250.978626559     -1247.074802287        13.559985321
        27           27.000000         3.891086957       303.721817791     -1250.986318932     -1247.075050950        13.555789666
        28           28.000000         3.709013627       289.509942447     -1250.760776088     -1247.030742541        13.561677061
        29           29.000000         3.835726424       299.400608301     -1250.933704761     -1247.076143882        13.541193051
        30           30.000000         3.918974663       305.898614319     -1251.018049009     -1247.076404582        13.575316422
        31           31.000000         3.904154737       304.741833500     -1250.986914140     -1247.059233410        13.520378079
        32           32.000000         3.859337325       301.243575590     -1250.947684588     -1247.063959359        13.600867754
        33           33.000000         3.640944244       284.196733811     -1250.668183213     -1247.002018677        13.524102114
        34           34.000000         3.740626921       291.977542705     -1250.791966695     -1247.025331072        13.563763915
        35           35.000000         3.894499465       303.988183730     -1250.982083992     -1247.060778655        13.574391594
        36           36.000000         3.809490073       297.352709546     -1250.843199663     -1247.006094400        13.520639183
        37           37.000000         3.851535258       300.634579147     -1250.915215410     -1247.035263054        13.584521852
        38           38.000000         3.834911090       299.336966771     -1250.890535189     -1247.026401563        12.851063142
        39           39.000000         3.874728870       302.444974579     -1250.941791494     -1247.037031780        13.567726752
        40           40.000000         3.935102417       307.157478752     -1250.958512812     -1246.992553084        12.847188992
        41           41.000000         3.709016320       289.510152666     -1250.669098724     -1246.928404297        13.533570191
        42           42.000000         3.724699845       290.734342403     -1250.726658771     -1246.969502065        13.519542912
        43           43.000000         3.884888443       303.237987926     -1250.884459839     -1246.966336559        13.553151401
        44           44.000000         3.916509879       305.706223717     -1250.868303751     -1246.917755469        13.561211053
        45           45.000000         3.972391020       310.068069591     -1250.961789872     -1246.954531410        13.539906496
        46           46.000000         3.809290328       297.337118306     -1250.718259213     -1246.873262363        13.515724996
        47           47.000000         3.788532629       295.716859929     -1250.692155138     -1246.867099072        13.577803569
        48           48.000000         3.937948163       307.379605659     -1250.947151077     -1246.971854619        13.511593264
        49           49.000000         3.805044627       297.005716796     -1250.805380780     -1246.962148493        13.517339354
        50           50.000000         3.765028685       293.882241332     -1250.740144691     -1246.936112098        13.554424297
        51           51.000000         3.806682896       297.133593185     -1250.822580998     -1246.976090372        13.482667252
        52           52.000000         3.872617398       302.280162012     -1250.889400694     -1246.976166169        14.221983328
        53           53.000000         4.039174895       315.280936899     -1251.089576226     -1247.008940666        13.550089896
        54           54.000000         3.869001019       301.997882729     -1250.870277952     -1246.958940805        13.490421252
        55           55.000000         3.730655276       291.199198205     -1250.747489968     -1246.973650317        13.524640108
        56           56.000000         3.845374419       300.153690088     -1250.915250081     -1247.025860805        13.524105275
        57           57.000000         3.823699352       298.461825862     -1250.858430760     -1246.989877903        13.517307974
        58           58.000000         3.857716548       301.117064591     -1250.897764459     -1246.994356006        12.791051339
        59           59.000000         3.792318438       296.012364227     -1250.816705629     -1246.977858981        13.565825066
        60           60.000000         3.739177512       291.864407951     -1250.750610217     -1246.964089897        13.470628547
        61           61.000000         3.943595976       307.820450047     -1251.016760911     -1247.025004632        13.553082848
        62           62.000000         3.877153889       302.634261316     -1250.929583828     -1247.003423010        13.491927413
        63           63.000000         3.731294257       291.249074365     -1250.759360414     -1246.978229822        13.530291613
        64           64.000000         3.732937621       291.377348421     -1250.778879815     -1246.995309432        13.492686406
        65           65.000000         3.720483563       290.405237201     -1250.724674758     -1246.952783960        13.563634904
        66           66.000000         3.896312717       304.129718556     -1250.931827106     -1246.983334477        13.540678030
        67           67.000000         3.885843524       303.312537500     -1250.935802549     -1246.996982635        13.553031476
        68           68.000000         3.726262074       290.856283408     -1250.719622317     -1246.939599022        13.569478229
        69           69.000000         3.840702027       299.788982904     -1250.886030634     -1246.990802592        13.524824582
        70           70.000000         3.854596084       300.873494334     -1250.891866529     -1246.981968646        13.542825609
        71           71.000000         3.838996201       299.655833281     -1250.872409593     -1246.977333424        13.496098658
        72           72.000000         3.808517595       297.276802044     -1250.850126200     -1246.984755297        13.534166297
        73           73.000000         3.682224522       287.418898029     -1250.673459647     -1246.933632325        13.552202309
        74           74.000000         3.868898477       301.989878678     -1250.867764124     -1246.940530371        13.535414977
        75           75.000000         3.965793265       309.553076751     -1250.976645216     -1246.951752529        13.532694951
        76           76.000000         3.839244628       299.675224507     -1250.800231734     -1246.901106187        13.589336939
        77           77.000000         3.847397035       300.311566968     -1250.831734219     -1246.923682841        13.580082932
        78           78.000000         3.793586224       296.111322285     -1250.753169962     -1246.898160096        13.581652099
        79           79.000000         3.855743025       300.963019663     -1250.836955323     -1246.919024328        13.585750313
        80           80.000000         3.894274417       303.970617420     -1250.908814558     -1246.951574605        13.577003833
        81           81.000000         3.711839691       289.730533079     -1250.673695993     -1246.898121731        13.585007094
        82           82.000000         3.789692273       295.807376841     -1250.786168793     -1246.932001625        13.578836957
        83           83.000000         3.885036554       303.249548827     -1250.914697806     -1246.964437881        13.506809678
        84           84.000000         3.848837089       300.423971449     -1250.850033736     -1246.935212631        13.571816739
        85           85.000000         3.856296017       301.006183928     -1250.889584218     -1246.966542803        12.863791307
        86           86.000000         3.717073397       290.139054017     -1250.711427894     -1246.926860386        13.557496823
        87           87.000000         3.777752010       294.875370359     -1250.740492624     -1246.894524021        13.536171855
        88           88.000000         3.903457228       304.687388864     -1250.874018697     -1246.901614472        13.574966155
        89           89.000000         3.755743100       293.157447778     -1250.696065635     -1246.870640632        13.541683652
        90           90.000000         3.752185970       292.879793242     -1250.721435659     -1246.898859567        13.553298004
        91           91.000000         3.767029239       294.038396178     -1250.771897081     -1246.933784402        13.514519013
        92           92.000000         3.781556917       295.172365335     -1250.773053351     -1246.919730525        13.538088134
        93           93.000000         3.859647353       301.267775042     -1250.894286274     -1246.962191411        13.488572413
        94           94.000000         3.689898032       288.017859823     -1250.678201839     -1246.915184202        13.842205206
        95           95.000000         3.676583264       286.978565215     -1250.636573262     -1246.886238860        13.793977484
        96           96.000000         3.823104029       298.415357438     -1250.829547849     -1246.932077013        13.564421386
        97           97.000000         3.792658502       296.038908222     -1250.747662642     -1246.880018962        13.540134061
        98           98.000000         3.804259174       296.944407653     -1250.859651317     -1246.979797613        13.542600183
        99           99.000000         3.715149923       289.988915794     -1250.754445962     -1246.963106926        13.560402077
       100          100.000000         3.691586189       288.149630234     -1250.670691118     -1246.902351798        13.802075919
       101          101.000000         3.849005155       300.437089963     -1250.881103454     -1246.954794882        13.977937115
       102          102.000000         3.744088490       292.247738175     -1250.775402021     -1246.953459740        13.495395692
       103          103.000000         3.684004030       287.557798879     -1250.694316244     -1246.931936580        13.620906746
       104          104.000000         3.756690387       293.231389016     -1250.764532674     -1246.928970168        13.537037404
       105          105.000000         3.778734237       294.952038842     -1250.788573522     -1246.930481054        13.598544149
       106          106.000000         3.899627342       304.388444151     -1250.980345633     -1247.000873625        13.508683244
       107          107.000000         3.806579646       297.125533902     -1250.868994367     -1246.982074362        13.563213276
       108          108.000000         3.695864222       288.483555428     -1250.737817528     -1246.961136301        13.503439995
       109          109.000000         3.835781436       299.404902350     -1250.917792018     -1247.000736359        13.513182962
       110          110.000000         3.828207762       298.813733317     -1250.814858414     -1246.904914664        13.581759147
       111          111.000000         3.820620686       298.221518200     -1250.813329087     -1246.910512898        13.529697213
       112          112.000000         3.806787866       297.141786713     -1250.827556623     -1246.938117976        13.513530564
       113          113.000000         3.769163935       294.205021507     -1250.753301385     -1246.901040509        13.561620120
       114          114.000000         3.943613723       307.821835364     -1250.958799798     -1246.931642681        13.497087151
       115          115.000000         3.911833103       305.341174360     -1250.899329828     -1246.903481546        13.577148456
       116          116.000000         3.768975279       294.190295775     -1250.726098719     -1246.872634064        13.521491952
       117          117.000000         3.819423367       298.128060508     -1250.837151061     -1246.932777728        13.506864658
       118          118.000000         3.815146566       297.794231540     -1250.789834123     -1246.889278244        14.249402948
       119          119.000000         3.893554075       303.914390592     -1250.877941249     -1246.898515510        14.239112029
       120          120.000000         3.886318239       303.349591820     -1250.874783067     -1246.902116348        13.523782337
       121          121.000000         3.732338440       291.330578817     -1250.718898310     -1246.899737274        13.532123450
       122          122.000000         3.836335526       299.448152290     -1250.848580943     -1246.924965077        13.539771561
       123          123.000000         3.876129305       302.554286589     -1250.862230174     -1246.898354705        13.520269064
       124          124.000000         3.815693621       297.836932339     -1250.788896432     -1246.884985591        14.211444417
       125          125.000000         3.818785129       298.078242382     -1250.783595022     -1246.876126542        13.574247301
       126          126.000000         3.742759498       292.144002661     -1250.664580406     -1246.832680111        13.586971942
       127          127.000000         3.858861565       301.206439783     -1250.819864473     -1246.871414889        13.556516873
       128          128.000000         3.917611137       305.792183291     -1250.917077906     -1246.909416870        13.532492168
       129          129.000000         3.752230453       292.883265391     -1250.696744712     -1246.853996886        13.547023648
       130          130.000000         3.775133923       294.671013577     -1250.761313133     -1246.895213539        13.530615846
       131          131.000000         3.791411858       295.941600449     -1250.752934441     -1246.870117117        13.518624326
       132          132.000000         3.814603748       297.751861447     -1250.773824587     -1246.867380614        13.544907497
       133          133.000000         3.849866588       300.504329829     -1250.844669002     -1246.902526685        13.508649161
       134          134.000000         3.685903092       287.706031693     -1250.632674928     -1246.854068608        13.537671365
       135          135.000000         3.743243781       292.181803685     -1250.686222734     -1246.849876671        13.546037113
       136          136.000000         3.876181557       302.558365180     -1250.845739289     -1246.876061334        13.534735557
       137          137.000000         3.809174676       297.328090958     -1250.734055492     -1246.830982467        13.542412264
       138          138.000000         3.781342721       295.155646080     -1250.750154570     -1246.874519386        12.843277743
       139          139.000000         3.689267618       287.968652356     -1250.636623973     -1246.852686702        13.564228047
       140          140.000000         3.737331762       291.720336449     -1250.684022427     -1246.851669747        12.849816814
       141          141.000000         3.884047129       303.172318509     -1250.848615182     -1246.869202469        13.541773722
       142          142.000000         3.759363841       293.440067503     -1250.668360652     -1246.813281409        13.542630190
       143          143.000000         3.712541713       289.785329897     -1250.628128408     -1246.819540971        13.557663409
       144          144.000000         3.750661641       292.760810546     -1250.744835566     -1246.897818976        13.510937365
       145          145.000000         3.751842038       292.852947382     -1250.726905973     -1246.878414508        13.580299821
       146          146.000000         3.824423148       298.518322326     -1250.836646974     -1246.915290781        12.820255814
       147          147.000000         3.698719786       288.706448701     -1250.683112625     -1246.887184139        13.542775027
       148          148.000000         3.655177041       285.307685839     -1250.613096206     -1246.860464351        13.542849097
       149          149.000000         3.808835711       297.301632819     -1250.810957159     -1246.904446538        13.558961188
       150          150.000000         3.786975262       295.595298439     -1250.708682433     -1246.823817231        13.535166524
       151          151.000000         3.783431356       295.318676145     -1250.711499203     -1246.829972187        13.549198039
       152          152.000000         3.748838650       292.618515559     -1250.647206705     -1246.800078195        13.574221976
       153          153.000000         3.717753358       290.192128901     -1250.594835453     -1246.778616102        13.532188904
       154          154.000000         3.866013671       301.764702961     -1250.788048827     -1246.823408916        13.540571604
       155          155.000000         3.816610810       297.908524180     -1250.726205836     -1246.810805081        13.567863848
       156          156.000000         3.754753450       293.080199882     -1250.647896424     -1246.794195488        12.826541148
       157          157.000000         3.847332977       300.306566884     -1250.773433599     -1246.827007002        13.543322977
       158          158.000000         3.848608692       300.406143801     -1250.757147989     -1246.809297520        13.581686823
       159          159.000000         3.909007910       305.120651674     -1250.868328435     -1246.859925070        13.563163839
       160          160.000000         3.856231636       301.001158592     -1250.807400529     -1246.851607324        13.578859216
       161          161.000000         3.753725768       292.999983406     -1250.662677969     -1246.809224464        13.584513111
       162          162.000000         3.893856472       303.937994397     -1250.839604053     -1246.845862667        13.594301488
       163          163.000000         3.895914333       304.098622397     -1250.864904987     -1246.868936816        12.839069383
       164          164.000000         3.826028219       298.643607426     -1250.788832815     -1246.862572315        13.520993149
       165          165.000000         3.822402823       298.360624260     -1250.799151309     -1246.876338897        13.590447316
       166          166.000000         3.776048848       294.742428754     -1250.721406035     -1246.844774271        13.507705674
       167          167.000000         3.892853745       303.859725788     -1250.890072202     -1246.896467625        12.855831448
       168          168.000000         3.884139084       303.179496144     -1250.883552661     -1246.898483184        13.579335500
       169          169.000000         3.741485795       292.044582779     -1250.710409731     -1246.867810100        12.870298782
       170          170.000000         3.807900928       297.228667597     -1250.806035816     -1246.896851793        13.553690810
       171          171.000000         3.838126814       299.587972617     -1250.830585587     -1246.891009691        13.590781499
       172          172.000000         3.865421192       301.718456514     -1250.860467283     -1246.893428357        13.516877236
       173          173.000000         3.855483830       300.942788006     -1250.855144624     -1246.897867889        12.867630756
       174          174.000000         3.719539130       290.331518784     -1250.666364610     -1246.844858661        12.825430807
       175          175.000000         3.815570868       297.827350735     -1250.804287531     -1246.886592877        13.569509523
       176          176.000000         3.903190062       304.666535032     -1250.889484984     -1246.884013520        13.566596162
       177          177.000000         3.840831059       299.799054564     -1250.804033346     -1246.860751811        13.536673168
       178          178.000000         3.866585619       301.809346816     -1250.865562652     -1246.896353690        13.564299202
       179          179.000000         3.838649366       299.628760823     -1250.849580117     -1246.908128286        13.573616976
       180          180.000000         3.919506878       305.940156795     -1250.927156990     -1246.904662302        13.557605710
       181          181.000000         3.995140150       311.843770642     -1251.032383298     -1246.934047196        13.532053070
       182          182.000000         3.846276641       300.224113682     -1250.840443260     -1246.890735402        13.550921276
       183          183.000000         3.848396124       300.389551579     -1250.861568873     -1246.909501913        13.540607432
       184          184.000000         3.892844684       303.859018527     -1250.884098518     -1246.887335332        13.539129084
       185          185.000000         3.893542459       303.913483931     -1250.883114135     -1246.885390375        13.539954420
       186          186.000000         3.943339328       307.800417190     -1250.911742816     -1246.863940994        13.564244596
       187          187.000000         3.840541859       299.776480852     -1250.837579763     -1246.892274220        13.526485993
       188          188.000000         3.858733066       301.196409688     -1250.861691327     -1246.897888231        13.592605496
       189          189.000000         3.959083693       309.029355852     -1250.960182286     -1246.895705984        13.535137003
       190          190.000000         3.863218824       301.546548958     -1250.827231186     -1246.858271844        13.568494115
       191          191.000000         3.835992423       299.421371111     -1250.829229672     -1246.887141456        13.546047935
       192          192.000000         3.822416587       298.361698660     -1250.803906998     -1246.875035037        13.567190759
       193          193.000000         3.839909977       299.727158807     -1250.817694273     -1246.870965056        13.544690939
       194          194.000000         3.945667761       307.982164851     -1250.963198230     -1246.910332096        13.573705021
       195          195.000000         3.836935457       299.494980301     -1250.837123652     -1246.892587400        13.533838816
       196          196.000000         3.785642860       295.491296787     -1250.773991681     -1246.880345123        13.559035180
       197          197.000000         3.878637659       302.750078147     -1250.897967692     -1246.910920373        13.567565124
       198          198.000000         3.881848928       303.000736231     -1250.876537051     -1246.885853484        13.555415535
       199          199.000000         3.912270686       305.375330178     -1250.914507661     -1246.892957438        13.518116185
       200          200.000000         3.845353804       300.152080990     -1250.839187524     -1246.884089924        14.229390329
       201          201.000000         3.820486389       298.211035521     -1250.806325858     -1246.875625052        13.727311496
       202          202.000000         3.958052148       308.948837801     -1250.970466072     -1246.901711568        13.581577025
       203          203.000000         3.914847637       305.576476128     -1250.922381699     -1246.896307630        13.572029376
       204          204.000000         3.850407813       300.546575568     -1250.862633480     -1246.900456347        14.274986193
       205          205.000000         3.850495168       300.553394136     -1250.845226437     -1246.882407990        13.537522838
       206          206.000000         3.850211483       300.531250899     -1250.838343645     -1246.875240629        14.242409846
       207          207.000000         3.986804350       311.193113312     -1250.987623863     -1246.887331129        13.551088076
       208          208.000000         3.956285178       308.810915642     -1250.977253591     -1246.906835498        13.499680623
       209          209.000000         3.860577853       301.340405971     -1250.862965634     -1246.887584139        13.571029138
       210          210.000000         3.956578059       308.833776682     -1251.002084154     -1246.930007252        13.584701836
       211          211.000000         3.971123368       309.969122073     -1250.993542272     -1246.906176993        13.547690516
       212          212.000000         3.964857838       309.480061250     -1250.983434778     -1246.901547510        13.527175954
       213          213.000000         3.915116910       305.597494453     -1250.937691941     -1246.904721146        13.517722499
       214          214.000000         3.818223239       298.034383623     -1250.802665180     -1246.865746437        13.575068373
       215          215.000000         3.933103206       307.001428776     -1250.973782162     -1246.921119560        13.588520790
       216          216.000000         3.982652636       310.869048066     -1250.994520500     -1246.891388590        13.549545521
       217          217.000000         3.895399225       304.058415214     -1250.878574373     -1246.861733773        13.537740706
       218          218.000000         3.868126331       301.929608223     -1250.862113735     -1246.871563516        13.607670881
       219          219.000000         3.818294886       298.039976054     -1250.819999158     -1246.878280596        13.576425623
       220          220.000000         3.895389314       304.057641606     -1250.920361917     -1246.900524192        12.831140446
       221          221.000000         3.935237313       307.168008169     -1250.981650318     -1246.920890734        13.580869967
       222          222.000000         3.805928581       297.074714556     -1250.792836170     -1246.860285295        13.576037854
       223          223.000000         3.830478202       298.990954298     -1250.808668281     -1246.850461618        13.544604866
       224          224.000000         3.876029186       302.546471746     -1250.843956970     -1246.839060063        13.546590060
       225          225.000000         3.886066718       303.329959084     -1250.881903137     -1246.865790037        13.562582092
       226          226.000000         3.886427258       303.358101333     -1250.904530252     -1246.886841985        13.532924131
       227          227.000000         3.758912877       293.404867193     -1250.737727872     -1246.846327919        13.576000242