#     Step Nr.          Time[fs]        Kin.[a.u.]          Temp[K]            Pot.[a.u.]        Cons Qty[a.u.]        UsedTime[s]
         0            0.000000         3.844830508       300.000000000     -1262.748289772     -1258.902984241         0.000000000
         1            1.000000         3.601178012       280.988564101     -1262.427083860     -1258.824608891        45.965401655
         2            2.000000         3.549769288       276.977303444     -1262.360031172     -1258.808216455        12.766549343
         3            3.000000         3.715371310       289.898707009     -1262.491688697     -1258.773562422        11.768246345
         4            4.000000         3.759204458       293.318869284     -1262.342957506     -1258.580295945        10.797951734
         5            5.000000         4.058152400       316.644834481     -1262.596413502     -1258.534080332        11.581095936
         6            6.000000         4.070876004       317.637617214     -1262.472917164     -1258.397070324        11.089596538
         7            7.000000         4.152118545       323.976716479     -1262.381599890     -1258.223660859        10.843364479
         8            8.000000         4.566881291       356.339345635     -1262.748970813     -1258.175287567        14.051968638
         9            9.000000         4.563624350       356.085216764     -1262.520238746     -1257.948626849        13.304195870
        10           10.000000         4.617262206       360.270409545     -1262.454599883     -1257.827984185        13.067672944
        11           11.000000         4.718931541       368.203347140     -1262.469070593     -1257.739207093        12.731480749
        12           12.000000         4.772212257       372.360673416     -1262.350187997     -1257.565225176        11.540844729
        13           13.000000         5.176104223       403.875089843     -1262.731012028     -1257.539997624        11.692116477
        14           14.000000         5.183797313       404.475357354     -1262.661486000     -1257.460188513        12.057640105
        15           15.000000         5.079131051       396.308579007     -1262.464530447     -1257.364983383        11.902375599
        16           16.000000         5.256605621       410.156360083     -1262.736322315     -1257.456025193        11.947086934
        17           17.000000         5.138486029       400.939860798     -1262.584490636     -1257.418657421        12.696848813
        18           18.000000         5.125128765       399.897635627     -1262.622817788     -1257.466394563        11.491487516
        19           19.000000         4.991980922       389.508529264     -1262.554244611     -1257.526763472        12.410849657
        20           20.000000         4.737509076       369.652893616     -1262.302107533     -1257.524791009        12.453297757
        21           21.000000         4.966276279       387.502877025     -1262.720838792     -1257.710246889        12.228912892
        22           22.000000         4.898950684       382.249673137     -1262.734117240     -1257.786032237        12.422223330
        23           23.000000         4.652492839       363.019344737     -1262.606832037     -1257.900334381        13.208346594
        24           24.000000         4.576742939       357.108818933     -1262.695198071     -1258.059604466        13.201672854
        25           25.000000         4.330532429       337.897789230     -1262.473419298     -1258.079264748        12.303005487
        26           26.000000         4.390419407       342.570581269     -1262.696412989     -1258.237660173        11.972779563
        27           27.000000         4.304177357       335.841386038     -1262.682886168     -1258.305650063        12.653319214
        28           28.000000         3.966434833       309.488402006     -1262.367390153     -1258.323406300        11.713644955
        29           29.000000         4.090217342       319.146760807     -1262.641973861     -1258.469900151        11.893986050
        30           30.000000         4.092966069       319.361235315     -1262.684382053     -1258.505248747        12.278569113
        31           31.000000         4.044226928       315.558273850     -1262.680889254     -1258.546277345        12.164587986
        32           32.000000         4.028954488       314.366613546     -1262.729689361     -1258.606248217        12.014726799
        33           33.000000         3.758001591       293.225013423     -1262.355309347     -1258.498959168        11.874593535
        34           34.000000         3.956168525       308.687354351     -1262.618469061     -1258.560261473        12.041672714
        35           35.000000         4.143825693       323.329651371     -1262.752667226     -1258.503040035        11.903974257
        36           36.000000         3.999914933       312.100748617     -1262.471647890     -1258.362232184        12.615591515
        37           37.000000         4.128164144       322.107630125     -1262.561902879     -1258.320646713        11.982835600
        38           38.000000         4.136337976       322.745408411     -1262.483942942     -1258.230946534        12.656369194
        39           39.000000         4.283518306       334.229425484     -1262.531291766     -1258.127560487        12.129782654
        40           40.000000         4.479755614       349.541203758     -1262.697742617     -1258.094125825        11.731053090
        41           41.000000         4.243877070       331.136344799     -1262.262646253     -1257.891297776        11.257931929
        42           42.000000         4.395920690       342.999829005     -1262.346227643     -1257.819312940        11.810879396
        43           43.000000         4.670894879       364.455197883     -1262.574617265     -1257.769058599        11.222698784
        44           44.000000         4.731111453       369.153707258     -1262.525654739     -1257.656047078        11.134617213
        45           45.000000         4.892171664       381.720727598     -1262.664069417     -1257.629429488        10.808736950
        46           46.000000         4.719965215       368.284001423     -1262.339080393     -1257.472608302        10.770173319
        47           47.000000         4.769160746       372.122573582     -1262.351542450     -1257.431845893        10.885957086
        48           48.000000         5.024848042       392.073047009     -1262.680032946     -1257.500438058        10.804981664
        49           49.000000         4.807106447       375.083357014     -1262.397519404     -1257.431347853        10.241921406
        50           50.000000         4.760876215       371.476157758     -1262.408737482     -1257.484542107        10.233174896
        51           51.000000         4.755230577       371.035646403     -1262.446630230     -1257.523816053        10.776889019
        52           52.000000         4.737307456       369.637161857     -1262.499116575     -1257.589942836        10.810366953
        53           53.000000         4.906543292       382.842100420     -1262.804366514     -1257.721575776        10.809101434
        54           54.000000         4.591350453       358.248597167     -1262.527591513     -1257.755630059        11.368035190
        55           55.000000         4.390795366       342.599916193     -1262.379106687     -1257.803583276        10.826860445
        56           56.000000         4.513241474       352.153999817     -1262.685729065     -1257.983726348        11.357707933
        57           57.000000         4.368332295       340.847193537     -1262.530262637     -1257.969178863        10.801037436
        58           58.000000         4.352173389       339.586365083     -1262.626969796     -1258.078177675        10.830724703
        59           59.000000         4.171307472       325.473967951     -1262.514362840     -1258.142713046        10.802434614
        60           60.000000         4.010673030       312.940168953     -1262.365780679     -1258.151273432        10.807268290
        61           61.000000         4.266103047       332.870567708     -1262.789083668     -1258.315715785        10.794731842
        62           62.000000         4.116940795       321.231907546     -1262.625751693     -1258.298132632        10.840956826
        63           63.000000         3.943790233       307.721515226     -1262.444330919     -1258.286655315        10.260529468
        64           64.000000         3.990718527       311.383182075     -1262.541755540     -1258.334092178        10.878814502
        65           65.000000         3.946155655       307.906081649     -1262.413511411     -1258.247438483        10.808478352
        66           66.000000         4.196421494       327.433535915     -1262.721363740     -1258.302058881        10.801497294
        67           67.000000         4.152861643       324.034698077     -1262.639888358     -1258.261142061        10.803948453
        68           68.000000         3.964270195       309.319502110     -1262.337449998     -1258.144417039        10.791345699
        69           69.000000         4.221767143       329.411176956     -1262.615458221     -1258.162085867        10.850487247
        70           70.000000         4.267743142       332.998539128     -1262.520087282     -1258.017808858        10.799861403
        71           71.000000         4.315223498       336.703281589     -1262.496142393     -1257.943419677        10.878629426
        72           72.000000         4.362928388       340.425543726     -1262.490607887     -1257.887168083        10.838712569
        73           73.000000         4.246287736       331.324441462     -1262.230920975     -1257.741109782        10.833837420
        74           74.000000         4.575675308       357.025515055     -1262.532700529     -1257.710397032        10.841939799
        75           75.000000         4.703649244       367.010917654     -1262.621799771     -1257.668176315        10.810025774
        76           76.000000         4.559226593       355.742073696     -1262.369591836     -1257.556942554        10.809482496
        77           77.000000         4.674466760       364.733900466     -1262.519565724     -1257.588147908        10.845025782
        78           78.000000         4.628419252       361.140958672     -1262.455037975     -1257.566007583        11.337687304
        79           79.000000         4.743578682       370.126485801     -1262.573404879     -1257.565422762        11.984569721
        80           80.000000         4.792903480       373.975144293     -1262.568266361     -1257.506973937        10.796326676
        81           81.000000         4.512076229       352.063079456     -1262.189620917     -1257.405141961        10.828653015
        82           82.000000         4.651342412       362.929580515     -1262.410206586     -1257.482429503        10.826538520
        83           83.000000         4.722318619       368.467630158     -1262.511190683     -1257.508215307        10.845532402
        84           84.000000         4.597065281       358.694507138     -1262.385512489     -1257.503484856        10.790928222
        85           85.000000         4.586880596       357.899828293     -1262.462162988     -1257.585992498        10.817434426
        86           86.000000         4.337215382       338.419238951     -1262.191967463     -1257.561190121        10.840438601
        87           87.000000         4.388386132       342.411931258     -1262.325540767     -1257.639392121        10.814805534
        88           88.000000         4.482268405       349.737268970     -1262.525979492     -1257.741651081        10.262487903
        89           89.000000         4.181768150       326.290181682     -1262.193439752     -1257.705380351        10.280392956
        90           90.000000         4.180618218       326.200456125     -1262.300490343     -1257.809511053        10.247126898
        91           91.000000         4.164310447       324.928012173     -1262.333784787     -1257.855074708        10.278183579
        92           92.000000         4.155152481       324.213444974     -1262.337889697     -1257.864336559        10.270457106
        93           93.000000         4.269149982       333.108310433     -1262.574717116     -1257.983138817        10.829947697
        94           94.000000         3.990114575       311.336057556     -1262.253331842     -1257.936852106        10.781606838
        95           95.000000         4.003370526       312.370377646     -1262.305804991     -1257.972310454        10.243512051
        96           96.000000         4.197618042       327.526898787     -1262.564043216     -1258.032495707        10.257542582
        97           97.000000         4.081552066       318.470636648     -1262.386101730     -1257.966799512        10.274884436
        98           98.000000         4.124001622       321.782841671     -1262.462559535     -1257.997053313        10.240003243
        99           99.000000         4.022666406       313.875974335     -1262.314206511     -1257.946337371        10.249688171
       100          100.000000         4.042280825       315.406425569     -1262.327014143     -1257.935911606        10.820200037
       101          101.000000         4.320591989       337.122168002     -1262.643302977     -1257.970170246        10.844474873
       102          102.000000         4.160983583       324.668427458     -1262.378161518     -1257.860856046        10.818567663
       103          103.000000         4.130185861       322.265378325     -1262.307717492     -1257.817522640        10.806055071
       104          104.000000         4.268089888       333.025594674     -1262.488835052     -1257.857015202        10.878276797
       105          105.000000         4.284890292       334.336477198     -1262.430758324     -1257.778338974        10.859731896
       106          106.000000         4.494294556       350.675631612     -1262.673196144     -1257.807449552        10.837402895
       107          107.000000         4.378240488       341.620298641     -1262.465462283     -1257.711748879        10.856688719
       108          108.000000         4.291971449       334.888997587     -1262.305091753     -1257.633679391        10.804344544
       109          109.000000         4.558915308       355.717785038     -1262.619284835     -1257.676848693        10.845159603
       110          110.000000         4.510421047       351.933930782     -1262.496468199     -1257.598274221        10.816396251
       111          111.000000         4.514996089       352.290906909     -1262.524304461     -1257.617234171        10.847890407
       112          112.000000         4.508702222       351.799816341     -1262.531052062     -1257.625907911        11.398748871
       113          113.000000         4.420197807       344.894095947     -1262.382166339     -1257.561143508        11.400500387
       114          114.000000         4.669652991       364.358297254     -1262.725725190     -1257.650732075        11.386540014
       115          115.000000         4.576132569       357.061193642     -1262.612149211     -1257.625994164        11.382740205
       116          116.000000         4.377366408       341.552096947     -1262.352839756     -1257.560846448        10.827369632
       117          117.000000         4.470428960       348.813474364     -1262.530510684     -1257.640871474        11.363790123
       118          118.000000         4.373070644       341.216912023     -1262.421634056     -1257.624733694        10.840336679
       119          119.000000         4.421921369       345.028580040     -1262.535800633     -1257.685431418        10.842717674
       120          120.000000         4.349218656       339.355816609     -1262.557001609     -1257.774703963        12.020317487
       121          121.000000         4.109183829       320.626656008     -1262.305299887     -1257.758564922        13.051237684
       122          122.000000         4.292331775       334.917112633     -1262.612497868     -1257.878204037        12.531766664
       123          123.000000         4.268922004       333.090522027     -1262.616631205     -1257.901260794        12.032023741
       124          124.000000         4.118487748       321.352611475     -1262.490825767     -1257.921505982        11.978346415
       125          125.000000         4.109459843       320.648192474     -1262.535431445     -1257.970875714        12.024616413
       126          126.000000         3.942534021       307.623497027     -1262.329543221     -1257.927784945        12.603574356
       127          127.000000         4.089740051       319.109519274     -1262.586906107     -1258.033889704        11.993625052
       128          128.000000         4.146269556       323.520338284     -1262.680737051     -1258.067080989        12.010976290
       129          129.000000         3.926819232       306.397321578     -1262.388703446     -1257.990504159        12.603163246
       130          130.000000         4.054047888       316.324572378     -1262.553721495     -1258.024409030        11.433230268
       131          131.000000         4.085910706       318.810727564     -1262.573519515     -1258.008428823        12.041078974
       132          132.000000         4.114919642       321.074203410     -1262.655057416     -1258.057049016        12.577166034
       133          133.000000         4.195788028       327.384108528     -1262.755826248     -1258.073015218        13.107420960
       134          134.000000         3.990301678       311.350656657     -1262.402219370     -1257.921036009        12.588602763
       135          135.000000         4.143566043       323.309391696     -1262.562709793     -1257.924469681        12.574426292
       136          136.000000         4.330308268       337.880298632     -1262.711960638     -1257.883043601        12.568358356
       137          137.000000         4.241748035       330.970222925     -1262.524894435     -1257.780539914        12.577486929
       138          138.000000         4.350580851       339.462104361     -1262.657478113     -1257.800271790        12.020532368
       139          139.000000         4.304021302       335.829209565     -1262.549453197     -1257.734731533        12.574068394
       140          140.000000         4.377069616       341.528939154     -1262.586870604     -1257.694988666        11.983785933
       141          141.000000         4.561038519       355.883452545     -1262.786363211     -1257.706236414        12.572388889
       142          142.000000         4.360980905       340.273587757     -1262.479195298     -1257.594788952        11.986534545
       143          143.000000         4.402532324       343.515713982     -1262.545119793     -1257.614861816        12.020975215
       144          144.000000         4.511198310       351.994578226     -1262.674400217     -1257.631057909        11.993652027
       145          145.000000         4.464008746       348.312525333     -1262.585889521     -1257.585225911        11.992906503
       146          146.000000         4.560593784       355.848751281     -1262.754682750     -1257.652839239        11.469693666
       147          147.000000         4.371867445       341.123030213     -1262.538202157     -1257.620470979        11.984778170
       148          148.000000         4.318572117       336.964563809     -1262.484755779     -1257.615798352        12.009532681
       149          149.000000         4.475970102       349.245832181     -1262.705252934     -1257.674300060        12.028083121
       150          150.000000         4.287026165       334.503132608     -1262.488488031     -1257.641858401        12.617878715
       151          151.000000         4.250650472       331.664852006     -1262.529968588     -1257.715202970        13.131085526
       152          152.000000         4.211115013       328.580024802     -1262.531085496     -1257.751387233        12.026126744
       153          153.000000         4.119595717       321.439062802     -1262.457213539     -1257.764649345        25.107259724
       154          154.000000         4.262559763       332.594096472     -1262.688108306     -1257.848193798        13.116006708
       155          155.000000         4.064286662       317.123471600     -1262.461230573     -1257.815241986        15.427622028
       156          156.000000         3.929669752       306.619738620     -1262.345510935     -1257.830006018        13.733185071
       157          157.000000         4.050601024       316.055624426     -1262.482893684     -1257.842393689        12.599311152
       158          158.000000         3.955242789       308.615122055     -1262.373568822     -1257.824397666        12.008686878
       159          159.000000         4.016547747       313.398554644     -1262.504817306     -1257.890385256        11.493472673
       160          160.000000         3.982546442       310.745540040     -1262.520935860     -1257.936583778        12.048352083
       161          161.000000         3.899073071       304.232376100     -1262.385254014     -1257.880563028        12.018361997
       162          162.000000         4.140847632       323.097282653     -1262.674801430     -1257.924505587        10.941761630
       163          163.000000         4.088447466       319.008662947     -1262.555974467     -1257.854180367        10.908498922
       164          164.000000         4.021479261       313.783345125     -1262.480691721     -1257.842048198        11.460978836
       165          165.000000         4.129243124       322.191819542     -1262.593631506     -1257.843419332        11.463904744
       166          166.000000         4.100835003       319.975223406     -1262.515315048     -1257.789685002        13.049010016
       167          167.000000         4.304640512       335.877524618     -1262.734123382     -1257.800791285        12.046673087
       168          168.000000         4.316541319       336.806107065     -1262.728879229     -1257.779626399        12.020595042
       169          169.000000         4.182874240       326.376486376     -1262.511598200     -1257.692022021        11.418873215
       170          170.000000         4.391278595       342.637620962     -1262.753838208     -1257.721820077        11.466301380
       171          171.000000         4.388626474       342.430684351     -1262.683665410     -1257.650121032        12.052156249
       172          172.000000         4.377385964       341.553622795     -1262.625824531     -1257.599300167        12.005930435
       173          173.000000         4.416015000       344.567724649     -1262.729349092     -1257.659914514        13.188952075
       174          174.000000         4.281280583       334.054823018     -1262.532294176     -1257.593311310        12.564933352
       175          175.000000         4.463042701       348.237147922     -1262.768027710     -1257.642945135        12.562004166
       176          176.000000         4.509357597       351.850953162     -1262.831930001     -1257.656021578        12.609510807
       177          177.000000         4.339432534       338.592236320     -1262.610190617     -1257.599692511        12.025602810
       178          178.000000         4.390339635       342.564356936     -1262.728451476     -1257.662554181        12.544172700
       179          179.000000         4.295935000       335.198260959     -1262.617071285     -1257.641071698        12.002482822
       180          180.000000         4.321388890       337.184347703     -1262.641838639     -1257.635891821        11.489561560
       181          181.000000         4.360418688       340.229719792     -1262.785949913     -1257.736422467        12.022025004
       182          182.000000         4.128532084       322.136339279     -1262.512687229     -1257.690573881        12.031848989
       183          183.000000         4.224722738       329.641792706     -1262.687784896     -1257.765092249        12.060176278
       184          184.000000         4.278804313       333.861607457     -1262.778031202     -1257.796791348        12.555015704
       185          185.000000         4.170524346       325.412863074     -1262.679504917     -1257.802101875        12.564013040
       186          186.000000         4.198613887       327.604601363     -1262.797274301     -1257.887390626        12.604160704
       187          187.000000         4.032907954       314.675089958     -1262.605714633     -1257.857230584        12.033362383
       188          188.000000         4.081609731       318.475136107     -1262.675610911     -1257.874216585        11.988986019
       189          189.000000         4.217027663       329.041370283     -1262.821569055     -1257.880482340        11.980172407
       190          190.000000         4.043451362       315.497758877     -1262.595365735     -1257.823610862        12.549132986
       191          191.000000         4.077772599       318.175736744     -1262.643313412     -1257.833097257        12.571020160
       192          192.000000         4.084287818       318.684098787     -1262.633159865     -1257.812298533        12.018380048
       193          193.000000         4.058465290       316.669248302     -1262.576658340     -1257.777527951        12.590489820
       194          194.000000         4.173040205       325.609167670     -1262.734120341     -1257.816307705        13.111702271
       195          195.000000         4.001523324       312.226246316     -1262.494372781     -1257.744012550        12.597376052
       196          196.000000         4.014442656       313.234301050     -1262.511442987     -1257.744214698        13.131136099
       197          197.000000         4.195937775       327.395792822     -1262.721206243     -1257.768472321        12.056836406
       198          198.000000         4.152491971       324.005853771     -1262.565502092     -1257.652140606        11.459472962
       199          199.000000         4.246349871       331.329289713     -1262.682648013     -1257.671334149        11.990624487
       200          200.000000         4.198723684       327.613168537     -1262.592228254     -1257.624413555        11.407895483
       201          201.000000         4.164081229       324.910126987     -1262.559446619     -1257.622183325        11.503325602
       202          202.000000         4.357010088       339.963757425     -1262.787381204     -1257.653017357        11.448604301
       203          203.000000         4.246789552       331.363596595     -1262.670205570     -1257.641818721        12.026085380
       204          204.000000         4.215643667       328.933381389     -1262.642416599     -1257.640984543        12.037603861
       205          205.000000         4.298322946       335.384584848     -1262.753162886     -1257.664823475        12.006648457
       206          206.000000         4.247201592       331.395746769     -1262.611767601     -1257.570283071        11.453137781
       207          207.000000         4.381295385       341.858662628     -1262.810518855     -1257.630612209        11.982321434
       208          208.000000         4.303132405       335.759851735     -1262.721401389     -1257.615262621        12.006331660
       209          209.000000         4.179419580       326.106930121     -1262.528860166     -1257.542116563        10.899490224
       210          210.000000         4.310562987       336.339636608     -1262.743419696     -1257.621205819        11.500968399
       211          211.000000         4.219146206       329.206673484     -1262.662681250     -1257.627516386        11.453281503
       212          212.000000         4.194128886       327.254650897     -1262.624337193     -1257.609873550        11.409213435
       213          213.000000         4.194938087       327.317790307     -1262.706832052     -1257.687254474        12.590596318
       214          214.000000         4.079797579       318.333739569     -1262.562309306     -1257.653628926        12.010832338
       215          215.000000         4.223221511       329.524656718     -1262.799194746     -1257.742850130        11.965030249
       216          216.000000         4.186278203       326.642086889     -1262.758691445     -1257.734993647        12.038357982
       217          217.000000         4.069803747       317.553952389     -1262.615269473     -1257.703831496        11.988429658
       218          218.000000         4.159765135       324.573355774     -1262.759956658     -1257.754376784        11.409745788
       219          219.000000         4.089777027       319.112404441     -1262.653446692     -1257.713674930        11.432675218
       220          220.000000         4.140320437       323.056147314     -1262.735589620     -1257.741122106        11.452376971
       221          221.000000         4.147611457       323.625042649     -1262.743648902     -1257.737719753        11.461759459
       222          222.000000         3.994979351       311.715640683     -1262.521171572     -1257.663788825        10.860979998
       223          223.000000         4.135115576       322.650028466     -1262.720030979     -1257.718464212        10.885165159
       224          224.000000         4.139658236       323.004477864     -1262.719519813     -1257.709303067        10.855223786
       225          225.000000         4.058475075       316.670011788     -1262.641626739     -1257.708533471        10.882141374
       226          226.000000         4.123039662       321.707782926     -1262.748617551     -1257.746928342        11.467317620
       227          227.000000         4.025140023       314.068982827     -1262.611151712     -1257.703360861        11.467029056