#     Step Nr.          Time[fs]        Kin.[a.u.]          Temp[K]            Pot.[a.u.]   
      6000         6000.000000         4.013144045       313.132974467     -1262.729940490  
      6001         6001.000000         4.000664116       312.159204974     -1262.700771220  
      6002         6002.000000         3.994448638       311.674230850     -1262.683193594  
      6003         6003.000000         4.004820809       312.483538642     -1262.698536766  
      6004         6004.000000         3.998930579       312.023942544     -1262.688061104  
      6005         6005.000000         3.977211357       310.329260152     -1262.662856494  
      6006         6006.000000         3.964838281       309.363828082     -1262.666856241  
      6007         6007.000000         3.964583219       309.343926346     -1262.677233804  
      6008         6008.000000         3.964895184       309.368267990     -1262.685234798  
      6009         6009.000000         3.944945783       307.811679172     -1262.673826771  
      6010         6010.000000         3.906607300       304.820248225     -1262.636389287  
      6011         6011.000000         3.875640531       302.404008948     -1262.633460280  
      6012         6012.000000         3.852492385       300.597832064     -1262.616613402  
      6013         6013.000000         3.835597843       299.279604265     -1262.607926640  
      6014         6014.000000         3.823353940       298.324251089     -1262.610523964  
      6015         6015.000000         3.811107966       297.368736345     -1262.597376299  
      6016         6016.000000         3.819621265       298.033002205     -1262.611171058  
      6017         6017.000000         3.842239926       299.797865046     -1262.643227199  
      6018         6018.000000         3.862479255       301.377076028     -1262.661968588  
      6019         6019.000000         3.872099571       302.127719002     -1262.677890121  
      6020         6020.000000         3.866146100       301.663188429     -1262.659305381  
      6021         6021.000000         3.862918756       301.411368908     -1262.643094839  
      6022         6022.000000         3.863862402       301.484998629     -1262.632317879  
      6023         6023.000000         3.860246376       301.202851544     -1262.588470188  
      6024         6024.000000         3.870353457       301.991475231     -1262.599982475  
      6025         6025.000000         3.887300653       303.313811490     -1262.604212634  
      6026         6026.000000         3.902395662       304.491627443     -1262.613163005  
      6027         6027.000000         3.917551763       305.674210146     -1262.619893448  
      6028         6028.000000         3.913584848       305.364684284     -1262.605797397  
      6029         6029.000000         3.904208872       304.633106493     -1262.588761256  
      6030         6030.000000         3.902606436       304.508073465     -1262.584914399  
      6031         6031.000000         3.895594373       303.960944291     -1262.573319140  
      6032         6032.000000         3.897516581       304.110928147     -1262.578567963  
      6033         6033.000000         3.909075000       305.012795090     -1262.589107443  
      6034         6034.000000         3.928204186       306.505385141     -1262.602841894  
      6035         6035.000000         3.958464293       308.866485860     -1262.633694481  
      6036         6036.000000         3.975359345       310.184753506     -1262.648401804  
      6037         6037.000000         3.984131732       310.869235229     -1262.655119615  
      6038         6038.000000         4.002116308       312.272514970     -1262.668590279  
      6039         6039.000000         4.013479711       313.159165477     -1262.681244943  
      6040         6040.000000         4.014360452       313.227886926     -1262.707475610  
      6041         6041.000000         4.007352635       312.681089033     -1262.700962710  
      6042         6042.000000         4.002135880       312.274042088     -1262.677270759  
      6043         6043.000000         4.001464548       312.221660216     -1262.680752359  
      6044         6044.000000         3.992616935       311.531308848     -1262.673050065  
      6045         6045.000000         3.991080277       311.411408297     -1262.705210469  
      6046         6046.000000         4.002962151       312.338513421     -1262.695004222  
      6047         6047.000000         4.017126548       313.443716658     -1262.690214523  
      6048         6048.000000         4.029501893       314.409325776     -1262.697866125  
      6049         6049.000000         4.020016622       313.669219974     -1262.689686503  
      6050         6050.000000         4.002279754       312.285268139     -1262.667669680  
      6051         6051.000000         3.989432359       311.282826400     -1262.651106825  
      6052         6052.000000         3.963369758       309.249243875     -1262.615344556  
      6053         6053.000000         3.942418644       307.614494527     -1262.592096217  
      6054         6054.000000         3.933306303       306.903487230     -1262.591312578  
      6055         6055.000000         3.927736525       306.468895030     -1262.604321947  
      6056         6056.000000         3.938697853       307.324172872     -1262.596071414  
      6057         6057.000000         3.940419608       307.458516016     -1262.614713808  
      6058         6058.000000         3.921589122       305.989232544     -1262.591072971  
      6059         6059.000000         3.903091110       304.545890993     -1262.572200863  
      6060         6060.000000         3.877937331       302.583220980     -1262.530879130  
      6061         6061.000000         3.862970192       301.415382286     -1262.512913326  
      6062         6062.000000         3.861457348       301.297339874     -1262.510080182  
      6063         6063.000000         3.858004320       301.027911016     -1262.500630071  
      6064         6064.000000         3.872059398       302.124584381     -1262.512220828  
      6065         6065.000000         3.901438339       304.416930549     -1262.539252954  
      6066         6066.000000         3.933817075       306.943341189     -1262.577644376  
      6067         6067.000000         3.956910615       308.745257268     -1262.597730894  
      6068         6068.000000         3.951505183       308.323488456     -1262.586211960  
      6069         6069.000000         3.938196872       307.285082927     -1262.550100659  
      6070         6070.000000         3.937616890       307.239828744     -1262.552439468  
      6071         6071.000000         3.940579236       307.470971265     -1262.558491787  
      6072         6072.000000         3.947265084       307.992646881     -1262.570995617  
      6073         6073.000000         3.949703782       308.182930865     -1262.571935155  
      6074         6074.000000         3.964808239       309.361483982     -1262.611219139  
      6075         6075.000000         3.987183825       311.107380397     -1262.607101907  
      6076         6076.000000         3.994395883       311.670114507     -1262.582074184  
      6077         6077.000000         4.003382834       312.371338001     -1262.606011798  
      6078         6078.000000         4.001064581       312.190452028     -1262.604088474  
      6079         6079.000000         3.991173550       311.418686041     -1262.590971425  
      6080         6080.000000         3.993336576       311.587460181     -1262.594240562  
      6081         6081.000000         3.981064633       310.629919173     -1262.570887060  
      6082         6082.000000         3.961380035       309.093992017     -1262.555304602  
      6083         6083.000000         3.954399937       308.549356982     -1262.539489996  
      6084         6084.000000         3.946147238       307.905424950     -1262.545223659  
      6085         6085.000000         3.951152719       308.295986827     -1262.546950198  
      6086         6086.000000         3.955512597       308.636174325     -1262.551219866  
      6087         6087.000000         3.946865263       307.961450141     -1262.532867571  
      6088         6088.000000         3.954044113       308.521593191     -1262.533986754  
      6089         6089.000000         3.962925010       309.214541528     -1262.499561829  
      6090         6090.000000         3.955415809       308.628622288     -1262.474111089  
      6091         6091.000000         3.954985821       308.595071714     -1262.474135176  
      6092         6092.000000         3.950115752       308.215075585     -1262.463796227  
      6093         6093.000000         3.976320216       310.259727232     -1262.488137390  
      6094         6094.000000         4.023092251       313.909201642     -1262.528291615  
      6095         6095.000000         4.048444696       315.887372941     -1262.539981889  
      6096         6096.000000         4.058525195       316.673922552     -1262.544178947  
      6097         6097.000000         4.060514891       316.829172246     -1262.538496854  
      6098         6098.000000         4.064200052       317.116713755     -1262.503886507  
      6099         6099.000000         4.065601828       317.226089912     -1262.510301593  
      6100         6100.000000         4.049172427       315.944155496     -1262.501695855  
      6101         6101.000000         4.038442430       315.106927701     -1262.478542896  
      6102         6102.000000         4.041182355       315.320715406     -1262.485242178  
      6103         6103.000000         4.051378829       316.116314143     -1262.499017254  
      6104         6104.000000         4.059638940       316.760824556     -1262.539868899  
      6105         6105.000000         4.035872510       314.906404929     -1262.524939881  
      6106         6106.000000         4.011610279       313.013299549     -1262.497632304  
      6107         6107.000000         4.005155897       312.509684494     -1262.511463512  
      6108         6108.000000         3.990597859       311.373766696     -1262.498641140  
      6109         6109.000000         3.985711312       310.992484889     -1262.496700203  
      6110         6110.000000         3.987881256       311.161798729     -1262.508138993  
      6111         6111.000000         3.997330679       311.899107409     -1262.513710470  
      6112         6112.000000         4.025446498       314.092896113     -1262.544800902  
      6113         6113.000000         4.031995603       314.603902158     -1262.547764147  
      6114         6114.000000         4.031515608       314.566449616     -1262.536854839  
      6115         6115.000000         4.053707412       316.298006085     -1262.559068315  
      6116         6116.000000         4.074529461       317.922684934     -1262.578325753  
      6117         6117.000000         4.093934276       319.436781416     -1262.601688055  
      6118         6118.000000         4.101969687       320.063759206     -1262.601956711  
      6119         6119.000000         4.099401386       319.863362767     -1262.592332432  
      6120         6120.000000         4.112737801       320.903961188     -1262.604753319  
      6121         6121.000000         4.119514437       321.432720767     -1262.610277139  
      6122         6122.000000         4.105129419       320.310303132     -1262.584978341  
      6123         6123.000000         4.083269844       318.604669481     -1262.563625894  
      6124         6124.000000         4.074874323       317.949593454     -1262.563845730  
      6125         6125.000000         4.088284174       318.995921845     -1262.584328648  
      6126         6126.000000         4.078273957       318.214856163     -1262.591976405  
      6127         6127.000000         4.039430945       315.184058386     -1262.570968705  
      6128         6128.000000         4.013510477       313.161566059     -1262.549936810  
      6129         6129.000000         3.996877567       311.863752520     -1262.540518901  
      6130         6130.000000         3.991479577       311.442564390     -1262.574283259  
      6131         6131.000000         3.975311310       310.181005457     -1262.550386767  
      6132         6132.000000         3.933812015       306.942946365     -1262.508688648  
      6133         6133.000000         3.922369347       306.050111049     -1262.502757643  
      6134         6134.000000         3.935271332       307.056812253     -1262.533729013  
      6135         6135.000000         3.937971237       307.267477315     -1262.529176530  
      6136         6136.000000         3.935600982       307.082533823     -1262.525685245  
      6137         6137.000000         3.927073386       306.417152373     -1262.516224318  
      6138         6138.000000         3.939948827       307.421782470     -1262.527234875  
      6139         6139.000000         3.969894610       309.758357497     -1262.558837558  
      6140         6140.000000         3.975696425       310.211054823     -1262.551302888  
      6141         6141.000000         3.977312207       310.337129186     -1262.548631584  
      6142         6142.000000         3.984635115       310.908512577     -1262.553753715  
      6143         6143.000000         4.000069757       312.112829051     -1262.542086979  
      6144         6144.000000         4.020939491       313.741228581     -1262.556988897  
      6145         6145.000000         4.022842288       313.889697830     -1262.553506655  
      6146         6146.000000         4.028713844       314.347836794     -1262.556123320  
      6147         6147.000000         4.045621705       315.667103885     -1262.569137620  
      6148         6148.000000         4.048908911       315.923594229     -1262.555239013  
      6149         6149.000000         4.045807856       315.681628699     -1262.556729689  
      6150         6150.000000         4.029855718       314.436933607     -1262.545784084  
      6151         6151.000000         4.015163323       313.290532409     -1262.527528402  
      6152         6152.000000         4.018875729       313.580199724     -1262.530676153  
      6153         6153.000000         4.010126265       312.897506678     -1262.533776709  
      6154         6154.000000         4.002154383       312.275485806     -1262.528630739  
      6155         6155.000000         4.011484266       313.003467208     -1262.552087773  
      6156         6156.000000         4.018969232       313.587495487     -1262.569469744  
      6157         6157.000000         4.025145530       314.069412541     -1262.587932740  
      6158         6158.000000         4.009092048       312.816809930     -1262.573138151  
      6159         6159.000000         3.991621342       311.453625823     -1262.549749801  
      6160         6160.000000         4.005501634       312.536661229     -1262.568042439  
      6161         6161.000000         4.017384021       313.463806476     -1262.581249608  
      6162         6162.000000         4.018645216       313.562213553     -1262.583973626  
      6163         6163.000000         4.009132809       312.819990416     -1262.592636726  
      6164         6164.000000         3.987946363       311.166878857     -1262.577074104  
      6165         6165.000000         3.986788179       311.076509386     -1262.584127974  
      6166         6166.000000         3.977756975       310.371833015     -1262.563716646  
      6167         6167.000000         3.958016583       308.831552458     -1262.529956033  
      6168         6168.000000         3.959501023       308.947378681     -1262.534512929  
      6169         6169.000000         3.963029133       309.222665973     -1262.519065648  
      6170         6170.000000         3.972086512       309.929384652     -1262.529757049  
      6171         6171.000000         3.971299789       309.867999131     -1262.531303961  
      6172         6172.000000         3.946459885       307.929819777     -1262.503364557  
      6173         6173.000000         3.934392372       306.988229803     -1262.494388174  
      6174         6174.000000         3.932427908       306.834948829     -1262.490234228  
      6175         6175.000000         3.935844570       307.101540222     -1262.487440349  
      6176         6176.000000         3.950148218       308.217608758     -1262.513959217  
      6177         6177.000000         3.963391322       309.250926422     -1262.528932129  
      6178         6178.000000         3.985909049       311.007913625     -1262.541676795  
      6179         6179.000000         3.993826038       311.625651296     -1262.547207607  
      6180         6180.000000         3.968052882       309.614653235     -1262.519687858  
      6181         6181.000000         3.945566577       307.860117752     -1262.499996797  
      6182         6182.000000         3.932912798       306.872783299     -1262.500590262  
      6183         6183.000000         3.938480348       307.307201640     -1262.509162930  
      6184         6184.000000         3.954089702       308.525150366     -1262.531421481  
      6185         6185.000000         3.952754523       308.420970531     -1262.512162268  
      6186         6186.000000         3.960242764       309.005254390     -1262.521594536  
      6187         6187.000000         3.969318502       309.713405563     -1262.524804072  
      6188         6188.000000         3.956995372       308.751870578     -1262.499115354  
      6189         6189.000000         3.951876710       308.352477550     -1262.489721440  
      6190         6190.000000         3.949906966       308.198784663     -1262.495400236  
      6191         6191.000000         3.955329373       308.621877927     -1262.499410802  
      6192         6192.000000         3.967928321       309.604934138     -1262.522342339  
      6193         6193.000000         3.957844157       308.818098591     -1262.498731295  
      6194         6194.000000         3.945340239       307.842457367     -1262.487644140  
      6195         6195.000000         3.938326751       307.295216991     -1262.490749171  
      6196         6196.000000         3.927323208       306.436645218     -1262.481291285  
      6197         6197.000000         3.933358604       306.907568144     -1262.498670581  
      6198         6198.000000         3.945076901       307.821909887     -1262.509358407  
      6199         6199.000000         3.958951810       308.904525257     -1262.527063134  
      6200         6200.000000         3.965654307       309.427500002     -1262.541843049  
      6201         6201.000000         3.939780494       307.408647933     -1262.518008993  
      6202         6202.000000         3.906261564       304.793271582     -1262.480801796  
      6203         6203.000000         3.871940649       302.115318765     -1262.454631257  
      6204         6204.000000         3.844776933       299.995819653     -1262.424920072  
      6205         6205.000000         3.849671626       300.377737142     -1262.435086129  
      6206         6206.000000         3.865717546       301.629749719     -1262.454074368  
      6207         6207.000000         3.900469792       304.341357885     -1262.491986187  
      6208         6208.000000         3.948187726       308.064637736     -1262.547586278  
      6209         6209.000000         3.959186600       308.922845218     -1262.565083627  
      6210         6210.000000         3.936428683       307.147116698     -1262.543162802  
      6211         6211.000000         3.896774271       304.053008017     -1262.499539283  
      6212         6212.000000         3.868606892       301.855196219     -1262.454381845  
      6213         6213.000000         3.884049973       303.060171161     -1262.474318669  
      6214         6214.000000         3.907866807       304.918523620     -1262.496363883  
      6215         6215.000000         3.926166465       306.346388219     -1262.514912832  
      6216         6216.000000         3.943084750       307.666468619     -1262.529484441  
      6217         6217.000000         3.945849113       307.882163169     -1262.533965216  
      6218         6218.000000         3.946720339       307.950142153     -1262.537379543  
      6219         6219.000000         3.931227946       306.741319596     -1262.524980771  
      6220         6220.000000         3.908187412       304.943539406     -1262.502077597  
      6221         6221.000000         3.908288899       304.951458083     -1262.510216709  
      6222         6222.000000         3.902190170       304.475593544     -1262.510032369  
      6223         6223.000000         3.889015177       303.447590327     -1262.499716747  
      6224         6224.000000         3.875635822       302.403641503     -1262.493556658  
      6225         6225.000000         3.849060405       300.330045506     -1262.471855153  
      6226         6226.000000         3.838614094       299.514952764     -1262.460683272  
      6227         6227.000000         3.837708956       299.444327727     -1262.461960677  
      6228         6228.000000         3.837081744       299.395388339     -1262.454992576  
      6229         6229.000000         3.859724028       301.162094343     -1262.485728120  
      6230         6230.000000         3.878483008       302.625798444     -1262.510594358  
      6231         6231.000000         3.875743830       302.412069015     -1262.516288455  
      6232         6232.000000         3.851860771       300.548549251     -1262.499948833  
      6233         6233.000000         3.820756416       298.121574507     -1262.470721523  
      6234         6234.000000         3.812693293       297.492434419     -1262.468700103  
      6235         6235.000000         3.815817043       297.736170773     -1262.476826338  
      6236         6236.000000         3.828829286       298.751475087     -1262.491871494  
      6237         6237.000000         3.863113127       301.426535076     -1262.532042583  
      6238         6238.000000         3.893226835       303.776212764     -1262.565494636  
      6239         6239.000000         3.910227182       305.102696211     -1262.587061400  
      6240         6240.000000         3.897572605       304.115299463     -1262.579869283  
      6241         6241.000000         3.847245998       300.188473048     -1262.529239896  
      6242         6242.000000         3.810342386       297.309000549     -1262.497284115  
      6243         6243.000000         3.797783370       296.329060183     -1262.489774470  
      6244         6244.000000         3.798639465       296.395858585     -1262.495244600  
      6245         6245.000000         3.804384735       296.844143877     -1262.508739629  
      6246         6246.000000         3.800134964       296.512547622     -1262.504615787  
      6247         6247.000000         3.812667569       297.490427307     -1262.524447775  
      6248         6248.000000         3.833967869       299.152422533     -1262.552319057  
      6249         6249.000000         3.824807428       298.437662150     -1262.538909150  
      6250         6250.000000         3.806741082       297.028002164     -1262.521281054  
      6251         6251.000000         3.796881097       296.258658607     -1262.519296125  
      6252         6252.000000         3.803113303       296.744938031     -1262.525377753  
      6253         6253.000000         3.824684383       298.428061344     -1262.550612444  
      6254         6254.000000         3.831388865       298.951190950     -1262.557858639  
      6255         6255.000000         3.824665235       298.426567315     -1262.550315071  
      6256         6256.000000         3.822791658       298.280378035     -1262.549346440  
      6257         6257.000000         3.820148933       298.074174481     -1262.544761565  
      6258         6258.000000         3.818518609       297.946965455     -1262.542022806  
      6259         6259.000000         3.810003332       297.282545251     -1262.529853269  
      6260         6260.000000         3.804452456       296.849427875     -1262.519857033  
      6261         6261.000000         3.808899466       297.196414098     -1262.522607780  
      6262         6262.000000         3.803356145       296.763886239     -1262.510290616  
      6263         6263.000000         3.798546977       296.388641988     -1262.503847615  
      6264         6264.000000         3.789046356       295.647338489     -1262.496319774  
      6265         6265.000000         3.773484758       294.433116074     -1262.476084187  
      6266         6266.000000         3.791424126       295.832868393     -1262.495269205  
      6267         6267.000000         3.823603663       298.343736177     -1262.527918251  
      6268         6268.000000         3.850751048       300.461961006     -1262.556959232  
      6269         6269.000000         3.869794899       301.947892722     -1262.585503995  
      6270         6270.000000         3.854664575       300.767321185     -1262.567917899  
      6271         6271.000000         3.828122016       298.696289072     -1262.542137885  
      6272         6272.000000         3.813358871       297.544367397     -1262.536282610  
      6273         6273.000000         3.799547046       296.466674245     -1262.526507645  
      6274         6274.000000         3.800140817       296.513004355     -1262.534826283  
      6275         6275.000000         3.808021358       297.127898078     -1262.552144655  
      6276         6276.000000         3.815383896       297.702373701     -1262.568590608  
      6277         6277.000000         3.825866898       298.520329311     -1262.593882962  
      6278         6278.000000         3.810735753       297.339693732     -1262.586499963  
      6279         6279.000000         3.776165473       294.642283804     -1262.557828535  
      6280         6280.000000         3.739537828       291.784344161     -1262.528226617  
      6281         6281.000000         3.716467193       289.984215318     -1262.508684157  
      6282         6282.000000         3.712931654       289.708348349     -1262.517970583  
      6283         6283.000000         3.704587647       289.057291790     -1262.509054571  
      6284         6284.000000         3.699493138       288.659783295     -1262.509376653  
      6285         6285.000000         3.702608831       288.902891021     -1262.511427936  
      6286         6286.000000         3.697040003       288.468372964     -1262.505658533  
      6287         6287.000000         3.695872656       288.377288533     -1262.499428098  
      6288         6288.000000         3.696780539       288.448127802     -1262.494769033  
      6289         6289.000000         3.702100004       288.863188827     -1262.493611623  
      6290         6290.000000         3.732417990       291.228805706     -1262.517993140  
      6291         6291.000000         3.762431093       293.570633435     -1262.546246406  
      6292         6292.000000         3.765898459       293.841181109     -1262.547619358  
      6293         6293.000000         3.762017376       293.538352428     -1262.542869715  
      6294         6294.000000         3.759030503       293.305296148     -1262.541105679  
      6295         6295.000000         3.760046025       293.384534122     -1262.546102063  
      6296         6296.000000         3.763493391       293.653521217     -1262.551134011  
      6297         6297.000000         3.774482878       294.510996248     -1262.565807684  
      6298         6298.000000         3.802854543       296.724747827     -1262.600210458  
      6299         6299.000000         3.816668665       297.802620196     -1262.610367130  
      6300         6300.000000         3.820860029       298.129659080     -1262.619867084  
      6301         6301.000000         3.808717595       297.182223272     -1262.616086820  
      6302         6302.000000         3.778517775       294.825826504     -1262.585505710  
      6303         6303.000000         3.767968360       294.002688948     -1262.585021577  
      6304         6304.000000         3.771811859       294.302585058     -1262.599644000  
      6305         6305.000000         3.772355616       294.345012678     -1262.610662052  
      6306         6306.000000         3.787612817       295.535483962     -1262.639369616  
      6307         6307.000000         3.796053125       296.194054566     -1262.652969452  
      6308         6308.000000         3.793548293       295.998610492     -1262.652927059  
      6309         6309.000000         3.779034259       294.866126178     -1262.652596924  
      6310         6310.000000         3.743008973       292.055186674     -1262.616601242  
      6311         6311.000000         3.717368050       290.054506325     -1262.596576693  
      6312         6312.000000         3.718497555       290.142638013     -1262.601663965  
      6313         6313.000000         3.733791219       291.335954423     -1262.606859008  
      6314         6314.000000         3.753553110       292.877912415     -1262.628939405  
      6315         6315.000000         3.759248227       293.322284468     -1262.632173283  
      6316         6316.000000         3.753724831       292.891311267     -1262.625073033  
      6317         6317.000000         3.745504795       292.249927827     -1262.616064870  
      6318         6318.000000         3.727817924       290.869877083     -1262.595266881  
      6319         6319.000000         3.703242031       288.952297640     -1262.566384070  
      6320         6320.000000         3.680647852       287.189345071     -1262.537544661  