#     Step Nr.          Time[fs]        Kin.[a.u.]          Temp[K]            Pot.[a.u.]   
      4400         4400.000000         3.803758562       296.795285588     -1262.348399217  
      4401         4401.000000         3.794479243       296.071249569     -1262.350557690  
      4402         4402.000000         3.796869323       296.257739994     -1262.352365710  
      4403         4403.000000         3.810388414       297.312592012     -1262.372203746  
      4404         4404.000000         3.825836211       298.517934861     -1262.394887887  
      4405         4405.000000         3.833912675       299.148115935     -1262.407383378  
      4406         4406.000000         3.843893035       299.926851891     -1262.421201521  
      4407         4407.000000         3.853549828       300.680340988     -1262.443556586  
      4408         4408.000000         3.851178818       300.495338553     -1262.453386031  
      4409         4409.000000         3.839460230       299.580974149     -1262.444993895  
      4410         4410.000000         3.833532154       299.118425008     -1262.448267245  
      4411         4411.000000         3.849584292       300.370922769     -1262.492792072  
      4412         4412.000000         3.886181333       303.226474451     -1262.548689691  
      4413         4413.000000         3.918123801       305.718844500     -1262.572653557  
      4414         4414.000000         3.932641879       306.851644316     -1262.585485383  
      4415         4415.000000         3.934460221       306.993523844     -1262.607544781  
      4416         4416.000000         3.930751933       306.704177803     -1262.582617938  
      4417         4417.000000         3.921928120       306.015683481     -1262.595522171  
      4418         4418.000000         3.900597702       304.351338281     -1262.576582719  
      4419         4419.000000         3.880243891       302.763194583     -1262.592093888  
      4420         4420.000000         3.874586512       302.321767104     -1262.597097031  
      4421         4421.000000         3.873160187       302.210475531     -1262.606595543  
      4422         4422.000000         3.857847608       301.015683239     -1262.593239182  
      4423         4423.000000         3.825433874       298.486541767     -1262.543506168  
      4424         4424.000000         3.797545786       296.310522196     -1262.525383655  
      4425         4425.000000         3.786287259       295.432054862     -1262.515862719  
      4426         4426.000000         3.777733325       294.764618405     -1262.516608776  
      4427         4427.000000         3.760224340       293.398447503     -1262.505107860  
      4428         4428.000000         3.743823983       292.118779354     -1262.473336524  
      4429         4429.000000         3.741006702       291.898955813     -1262.452592717  
      4430         4430.000000         3.748417442       292.477192441     -1262.484560194  
      4431         4431.000000         3.747766960       292.426437451     -1262.478702399  
      4432         4432.000000         3.739757077       291.801451522     -1262.481425682  
      4433         4433.000000         3.742417729       292.009053770     -1262.481841706  
      4434         4434.000000         3.758836704       293.290174639     -1262.493898808  
      4435         4435.000000         3.781209463       295.035850487     -1262.526307555  
      4436         4436.000000         3.791872016       295.867815858     -1262.532338992  
      4437         4437.000000         3.789497077       295.682506851     -1262.535965584  
      4438         4438.000000         3.787904470       295.558240783     -1262.550615539  
      4439         4439.000000         3.786958317       295.484415389     -1262.565059760  
      4440         4440.000000         3.786317699       295.434430010     -1262.563645366  
      4441         4441.000000         3.794626766       296.082760335     -1262.568178080  
      4442         4442.000000         3.811451422       297.395535191     -1262.571885553  
      4443         4443.000000         3.832771786       299.059095894     -1262.605102165  
      4444         4444.000000         3.848793742       300.309238655     -1262.612798225  
      4445         4445.000000         3.850910118       300.474372788     -1262.596220474  
      4446         4446.000000         3.842373914       299.808319732     -1262.589207147  
      4447         4447.000000         3.826187754       298.545364671     -1262.575797670  
      4448         4448.000000         3.805094844       296.899551425     -1262.552770892  
      4449         4449.000000         3.789049022       295.647546530     -1262.535597199  
      4450         4450.000000         3.786977908       295.485944060     -1262.546566806  
      4451         4451.000000         3.795304061       296.135607462     -1262.575702294  
      4452         4452.000000         3.797580526       296.313232849     -1262.574335182  
      4453         4453.000000         3.796460023       296.225803550     -1262.595676499  
      4454         4454.000000         3.795471247       296.148652465     -1262.594797716  
      4455         4455.000000         3.799392966       296.454651845     -1262.603640417  
      4456         4456.000000         3.805529206       296.933443325     -1262.614849020  
      4457         4457.000000         3.800383642       296.531951212     -1262.629219106  
      4458         4458.000000         3.789235818       295.662121669     -1262.624282957  
      4459         4459.000000         3.786404988       295.441240889     -1262.636553394  
      4460         4460.000000         3.774480329       294.510797393     -1262.628626009  
      4461         4461.000000         3.744606416       292.179830143     -1262.606926354  
      4462         4462.000000         3.717934673       290.098718162     -1262.589745556  
      4463         4463.000000         3.708864284       289.390984250     -1262.595932006  
      4464         4464.000000         3.711988507       289.634757582     -1262.618914925  
      4465         4465.000000         3.715802050       289.932316306     -1262.638603421  
      4466         4466.000000         3.708506238       289.363047075     -1262.639527446  
      4467         4467.000000         3.696013213       288.388255735     -1262.627431037  
      4468         4468.000000         3.690432984       287.952848098     -1262.628130254  
      4469         4469.000000         3.687315749       287.709620050     -1262.631912367  
      4470         4470.000000         3.678516160       287.023015854     -1262.631620518  
      4471         4471.000000         3.675657837       286.799989940     -1262.631897408  
      4472         4472.000000         3.680593967       287.185140573     -1262.626994987  
      4473         4473.000000         3.717527918       290.066980304     -1262.659783745  
      4474         4474.000000         3.760333187       293.406940461     -1262.701997224  
      4475         4475.000000         3.770878802       294.229781543     -1262.722818687  
      4476         4476.000000         3.757003121       293.147105931     -1262.711183123  
      4477         4477.000000         3.740940334       291.893777294     -1262.697271665  
      4478         4478.000000         3.732532438       291.237735677     -1262.694386409  
      4479         4479.000000         3.727370087       290.834933716     -1262.682317916  
      4480         4480.000000         3.725842854       290.715768596     -1262.677233690  
      4481         4481.000000         3.725635751       290.699608936     -1262.679437383  
      4482         4482.000000         3.723567267       290.538211678     -1262.660280275  
      4483         4483.000000         3.720735278       290.317240503     -1262.661083497  
      4484         4484.000000         3.706155669       289.179639584     -1262.639347991  
      4485         4485.000000         3.685919207       287.600652288     -1262.640143569  
      4486         4486.000000         3.678780576       287.043647394     -1262.637414224  
      4487         4487.000000         3.679843424       287.126578101     -1262.642964981  
      4488         4488.000000         3.678332944       287.008720121     -1262.657281761  
      4489         4489.000000         3.682744489       287.352939055     -1262.666095329  
      4490         4490.000000         3.675158854       286.761055894     -1262.638493053  
      4491         4491.000000         3.650605232       284.845214193     -1262.611077365  
      4492         4492.000000         3.628058830       283.085989513     -1262.573896438  
      4493         4493.000000         3.622116765       282.622348896     -1262.582805246  
      4494         4494.000000         3.637475236       283.820721998     -1262.603938742  
      4495         4495.000000         3.662139206       285.745173783     -1262.630628137  
      4496         4496.000000         3.672521689       286.555286224     -1262.655579335  
      4497         4497.000000         3.663973208       285.888275173     -1262.656018515  
      4498         4498.000000         3.651966246       284.951409767     -1262.655251968  
      4499         4499.000000         3.633196185       283.486841125     -1262.653834190  
      4500         4500.000000         3.602245377       281.071847218     -1262.631817808  
      4501         4501.000000         3.576084751       279.030616008     -1262.611505946  
      4502         4502.000000         3.570221732       278.573143193     -1262.611049924  
      4503         4503.000000         3.579479435       279.295492510     -1262.623958851  
      4504         4504.000000         3.590562335       280.160256285     -1262.637967937  
      4505         4505.000000         3.585187814       279.740899349     -1262.635723604  
      4506         4506.000000         3.566154599       278.255797556     -1262.613243743  
      4507         4507.000000         3.560056173       277.779956632     -1262.602210016  
      4508         4508.000000         3.560428230       277.808987064     -1262.603485646  
      4509         4509.000000         3.559720101       277.753734021     -1262.598030432  
      4510         4510.000000         3.575022701       278.947747662     -1262.605002190  
      4511         4511.000000         3.608934553       281.593782479     -1262.618882386  
      4512         4512.000000         3.645108443       284.416317029     -1262.656239198  
      4513         4513.000000         3.677277267       286.926348983     -1262.693564395  
      4514         4514.000000         3.687540269       287.727138609     -1262.697804963  
      4515         4515.000000         3.677916791       286.976249027     -1262.692727851  
      4516         4516.000000         3.682873278       287.362988053     -1262.701228394  
      4517         4517.000000         3.699423165       288.654323569     -1262.725224186  
      4518         4518.000000         3.708443999       289.358190759     -1262.739772499  
      4519         4519.000000         3.706854527       289.234169315     -1262.747832575  
      4520         4520.000000         3.700343352       288.726122834     -1262.748527981  
      4521         4521.000000         3.693729562       288.210069657     -1262.759101611  
      4522         4522.000000         3.682163339       287.307593783     -1262.759842475  
      4523         4523.000000         3.652143456       284.965236926     -1262.730221336  
      4524         4524.000000         3.614665330       282.040936989     -1262.701339105  
      4525         4525.000000         3.599770450       280.878736414     -1262.710928608  
      4526         4526.000000         3.599044319       280.822078754     -1262.712284725  
      4527         4527.000000         3.585546663       279.768899229     -1262.712228399  
      4528         4528.000000         3.555402368       277.416834919     -1262.670138664  
      4529         4529.000000         3.516319187       274.367297543     -1262.628979326  
      4530         4530.000000         3.482636354       271.739132308     -1262.587514810  
      4531         4531.000000         3.466907379       270.511849957     -1262.564515235  
      4532         4532.000000         3.461426562       270.084199093     -1262.544420420  
      4533         4533.000000         3.465597078       270.409611332     -1262.533335241  
      4534         4534.000000         3.489812613       272.299073183     -1262.552821251  
      4535         4535.000000         3.516428369       274.375816672     -1262.574605952  
      4536         4536.000000         3.529608044       275.404185178     -1262.585236258  
      4537         4537.000000         3.534121043       275.756320245     -1262.572659587  
      4538         4538.000000         3.540466934       276.251470080     -1262.564589909  
      4539         4539.000000         3.563923043       278.081676310     -1262.551034889  
      4540         4540.000000         3.602361673       281.080921384     -1262.576495021  
      4541         4541.000000         3.637201581       283.799369568     -1262.606287472  
      4542         4542.000000         3.670874012       286.426723193     -1262.636079684  
      4543         4543.000000         3.704940474       289.084821771     -1262.670494754  
      4544         4544.000000         3.718717441       290.159795050     -1262.671332062  
      4545         4545.000000         3.715644088       289.919991000     -1262.672500739  
      4546         4546.000000         3.711266513       289.578422617     -1262.668616603  
      4547         4547.000000         3.710324508       289.504920936     -1262.677502188  
      4548         4548.000000         3.714243838       289.810733901     -1262.700028867  
      4549         4549.000000         3.719850276       290.248186628     -1262.718389953  
      4550         4550.000000         3.713418930       289.746368923     -1262.721702703  
      4551         4551.000000         3.697564666       288.509310728     -1262.718850303  
      4552         4552.000000         3.678687906       287.036416652     -1262.734151008  
      4553         4553.000000         3.646642541       284.536017867     -1262.703165477  
      4554         4554.000000         3.606610415       281.412437312     -1262.672061706  
      4555         4555.000000         3.578841368       279.245706152     -1262.648047623  
      4556         4556.000000         3.572243131       278.730866568     -1262.651528546  
      4557         4557.000000         3.584029779       279.650541550     -1262.687189803  
      4558         4558.000000         3.591379249       280.223997511     -1262.695704019  
      4559         4559.000000         3.575026840       278.948070551     -1262.676327537  
      4560         4560.000000         3.567356488       278.349577200     -1262.667313022  
      4561         4561.000000         3.581026199       279.416181609     -1262.684339251  
      4562         4562.000000         3.586194680       279.819461946     -1262.688045838  
      4563         4563.000000         3.584856555       279.715052223     -1262.681966344  
      4564         4564.000000         3.590120802       280.125804805     -1262.680298569  
      4565         4565.000000         3.612812595       281.896373904     -1262.695534339  
      4566         4566.000000         3.649208232       284.736210641     -1262.723667915  
      4567         4567.000000         3.674165328       286.683534142     -1262.743067907  
      4568         4568.000000         3.673720192       286.648801627     -1262.731685440  
      4569         4569.000000         3.668930687       286.275091634     -1262.724464632  
      4570         4570.000000         3.677841743       286.970393266     -1262.728869922  
      4571         4571.000000         3.691197844       288.012527701     -1262.741644248  
      4572         4572.000000         3.698796365       288.605416307     -1262.736392794  
      4573         4573.000000         3.702586860       288.901176698     -1262.736187931  
      4574         4574.000000         3.706646888       289.217967897     -1262.742103877  
      4575         4575.000000         3.715824411       289.934061075     -1262.753766743  
      4576         4576.000000         3.716694064       290.001917330     -1262.756885557  
      4577         4577.000000         3.699495303       288.659952208     -1262.740270285  
      4578         4578.000000         3.685417070       287.561472130     -1262.727955164  
      4579         4579.000000         3.696275033       288.408684720     -1262.748570830  
      4580         4580.000000         3.718908812       290.174727136     -1262.784140010  
      4581         4581.000000         3.737776608       291.646921785     -1262.805505919  
      4582         4582.000000         3.746590830       292.334667705     -1262.819085865  
      4583         4583.000000         3.745770481       292.270658435     -1262.833871515  
      4584         4584.000000         3.746284293       292.310749596     -1262.842181394  
      4585         4585.000000         3.746072545       292.294227557     -1262.851136096  
      4586         4586.000000         3.733775736       291.334746355     -1262.844986178  
      4587         4587.000000         3.718952667       290.178149003     -1262.840447462  
      4588         4588.000000         3.716026146       289.949801808     -1262.846015813  
      4589         4589.000000         3.719550700       290.224811662     -1262.852460158  
      4590         4590.000000         3.720780065       290.320735101     -1262.860585084  
      4591         4591.000000         3.707614257       289.293448649     -1262.852918608  
      4592         4592.000000         3.689380669       287.870739279     -1262.838016294  
      4593         4593.000000         3.688030787       287.765412195     -1262.836901948  
      4594         4594.000000         3.705837899       289.154845039     -1262.856433770  
      4595         4595.000000         3.724473925       290.608955359     -1262.873420755  
      4596         4596.000000         3.732887576       291.265445995     -1262.875708806  
      4597         4597.000000         3.732910403       291.267227147     -1262.867360470  
      4598         4598.000000         3.722815152       290.479526492     -1262.858603549  
      4599         4599.000000         3.702133417       288.865795940     -1262.835169591  
      4600         4600.000000         3.676911088       286.897777186     -1262.813550373  
      4601         4601.000000         3.656755325       285.325086575     -1262.795815004  
      4602         4602.000000         3.653929191       285.104572248     -1262.792712137  
      4603         4603.000000         3.669436215       286.314536388     -1262.809566727  
      4604         4604.000000         3.683954691       287.447367305     -1262.825625881  
      4605         4605.000000         3.689058650       287.845613154     -1262.828287379  
      4606         4606.000000         3.687222302       287.702328675     -1262.829415512  
      4607         4607.000000         3.681171463       287.230200814     -1262.823899643  
      4608         4608.000000         3.660903982       285.648793189     -1262.802636705  
      4609         4609.000000         3.662281163       285.756250247     -1262.804088516  
      4610         4610.000000         3.686661869       287.658599845     -1262.830037357  
      4611         4611.000000         3.703188231       288.948099745     -1262.846041908  
      4612         4612.000000         3.719660363       290.233368254     -1262.866891013  
      4613         4613.000000         3.732232878       291.214362011     -1262.879278185  
      4614         4614.000000         3.744546293       292.175138934     -1262.883299324  
      4615         4615.000000         3.744091913       292.139685052     -1262.883805624  
      4616         4616.000000         3.734377567       291.381705324     -1262.877776181  
      4617         4617.000000         3.729734428       291.019415813     -1262.873386742  
      4618         4618.000000         3.731400832       291.149440089     -1262.875981145  
      4619         4619.000000         3.729584997       291.007756214     -1262.853274172  
      4620         4620.000000         3.718458323       290.139576912     -1262.840840812  
      4621         4621.000000         3.699304102       288.645033400     -1262.809780788  
      4622         4622.000000         3.679778487       287.121511259     -1262.788451233  
      4623         4623.000000         3.663119921       285.821695882     -1262.768727613  
      4624         4624.000000         3.645794512       284.469848851     -1262.740949490  
      4625         4625.000000         3.637414564       283.815987957     -1262.729429344  
      4626         4626.000000         3.632136359       283.404146271     -1262.722162936  
      4627         4627.000000         3.626461701       282.961370617     -1262.716761243  
      4628         4628.000000         3.621670395       282.587520126     -1262.720191952  
      4629         4629.000000         3.613364476       281.939435395     -1262.719969053  
      4630         4630.000000         3.597063341       280.667509268     -1262.693511518  
      4631         4631.000000         3.586423276       279.837298575     -1262.680283425  
      4632         4632.000000         3.587070256       279.887780342     -1262.679852612  
      4633         4633.000000         3.590738484       280.174000597     -1262.680922514  
      4634         4634.000000         3.595380641       280.536213469     -1262.677571501  
      4635         4635.000000         3.614150429       282.000760869     -1262.679780927  
      4636         4636.000000         3.635571457       283.672176124     -1262.703647845  
      4637         4637.000000         3.648034621       284.644637476     -1262.710340528  
      4638         4638.000000         3.650010577       284.798815144     -1262.707188559  
      4639         4639.000000         3.650736998       284.855495488     -1262.705172187  
      4640         4640.000000         3.645896615       284.477815631     -1262.699183454  
      4641         4641.000000         3.645618487       284.456114221     -1262.695052320  
      4642         4642.000000         3.645516597       284.448164071     -1262.690959995  
      4643         4643.000000         3.642276945       284.195384210     -1262.674975985  
      4644         4644.000000         3.650446350       284.832817114     -1262.684048162  
      4645         4645.000000         3.667435566       286.158432067     -1262.708727604  
      4646         4646.000000         3.670254631       286.378394783     -1262.711396289  
      4647         4647.000000         3.658748806       285.480631580     -1262.706878858  
      4648         4648.000000         3.646166588       284.498880814     -1262.697117911  
      4649         4649.000000         3.640359613       284.045780872     -1262.693420464  
      4650         4650.000000         3.646983267       284.562603691     -1262.702319604  
      4651         4651.000000         3.653519807       285.072629282     -1262.703246136  
      4652         4652.000000         3.653341729       285.058734430     -1262.706739789  
      4653         4653.000000         3.652768557       285.014011639     -1262.710156970  
      4654         4654.000000         3.650951272       284.872214565     -1262.705011059  
      4655         4655.000000         3.644880090       284.398499393     -1262.701136034  
      4656         4656.000000         3.635141089       283.638595845     -1262.696055958  
      4657         4657.000000         3.629727753       283.216210304     -1262.689372433  
      4658         4658.000000         3.635071216       283.633143920     -1262.689943410  
      4659         4659.000000         3.645785123       284.469116276     -1262.700232335  
      4660         4660.000000         3.655072678       285.193794898     -1262.707425034  
      4661         4661.000000         3.650914336       284.869332590     -1262.699919077  
      4662         4662.000000         3.633444984       283.506254143     -1262.665164975  
      4663         4663.000000         3.620886032       282.526318682     -1262.655851464  
      4664         4664.000000         3.618935062       282.374090681     -1262.653143597  
      4665         4665.000000         3.625841963       282.913014405     -1262.652086486  
      4666         4666.000000         3.635117488       283.636754343     -1262.660994359  
      4667         4667.000000         3.659600768       285.547107489     -1262.687292431  
      4668         4668.000000         3.689299653       287.864417823     -1262.706586951  
      4669         4669.000000         3.703325646       288.958821807     -1262.719463916  
      4670         4670.000000         3.703859910       289.000508746     -1262.694943762  
      4671         4671.000000         3.701159350       288.789792568     -1262.681585680  
      4672         4672.000000         3.711892019       289.627228901     -1262.696090352  
      4673         4673.000000         3.732807230       291.259176834     -1262.711940953  
      4674         4674.000000         3.752097265       292.764317425     -1262.733425796  
      4675         4675.000000         3.762654512       293.588066125     -1262.742225417  
      4676         4676.000000         3.767301403       293.950648422     -1262.747575875  
      4677         4677.000000         3.765875591       293.839396753     -1262.727736210  
      4678         4678.000000         3.764289362       293.715628367     -1262.719435006  
      4679         4679.000000         3.765266819       293.791896240     -1262.701510085  
      4680         4680.000000         3.770278348       294.182930063     -1262.705479616  
      4681         4681.000000         3.787422405       295.520626738     -1262.703862971  
      4682         4682.000000         3.816586558       297.796213632     -1262.727378890  
      4683         4683.000000         3.839170542       299.558370716     -1262.753334569  
      4684         4684.000000         3.840913172       299.694342626     -1262.748831988  
      4685         4685.000000         3.829983879       298.841564352     -1262.744696444  
      4686         4686.000000         3.819455371       298.020058065     -1262.733983631  
      4687         4687.000000         3.815747017       297.730706901     -1262.763882788  
      4688         4688.000000         3.818812343       297.969884593     -1262.758873786  
      4689         4689.000000         3.824805420       298.437505519     -1262.764996336  
      4690         4690.000000         3.834891187       299.224466108     -1262.776025640  
      4691         4691.000000         3.835944352       299.306641254     -1262.779952730  
      4692         4692.000000         3.816021839       297.752150419     -1262.757910117  
      4693         4693.000000         3.785693515       295.385726910     -1262.741234588  
      4694         4694.000000         3.761471316       293.495745131     -1262.716277705  
      4695         4695.000000         3.752455365       292.792258836     -1262.704143598  
      4696         4696.000000         3.760300496       293.404389715     -1262.713425647  
      4697         4697.000000         3.771639068       294.289102696     -1262.713724801  
      4698         4698.000000         3.775490867       294.589646442     -1262.701649241  
      4699         4699.000000         3.793042190       295.959120802     -1262.704691628  
      4700         4700.000000         3.801015058       296.581218616     -1262.707216847  
      4701         4701.000000         3.815893289       297.742120004     -1262.722541747  
      4702         4702.000000         3.813696717       297.570728435     -1262.709327356  
      4703         4703.000000         3.813601373       297.563289066     -1262.698406202  
      4704         4704.000000         3.833285627       299.099189288     -1262.702517766  
      4705         4705.000000         3.859053118       301.109745352     -1262.719211900  
      4706         4706.000000         3.879333000       302.692120596     -1262.741770117  
      4707         4707.000000         3.888870459       303.436298485     -1262.742423011  
      4708         4708.000000         3.890769157       303.584447889     -1262.738064802  
      4709         4709.000000         3.898976747       304.224860294     -1262.738282694  
      4710         4710.000000         3.904691630       304.670774541     -1262.746745142  
      4711         4711.000000         3.898264228       304.169264661     -1262.733938024  
      4712         4712.000000         3.886127648       303.222285553     -1262.722032020  
      4713         4713.000000         3.882407708       302.932030430     -1262.730574056  
      4714         4714.000000         3.875491100       302.392349320     -1262.716867444  
      4715         4715.000000         3.851030408       300.483758648     -1262.698394763  
      4716         4716.000000         3.816116001       297.759497517     -1262.662669970  
      4717         4717.000000         3.799129486       296.434093351     -1262.652037965  
      4718         4718.000000         3.801254531       296.599903905     -1262.663044116  
      4719         4719.000000         3.809402243       297.235644219     -1262.671914961  
      4720         4720.000000         3.806675298       297.022869296     -1262.675211785  