#     Step Nr.          Time[fs]        Kin.[a.u.]          Temp[K]            Pot.[a.u.]        Cons Qty[a.u.]        UsedTime[s]
         0            0.000000         3.844830508       300.000000000     -1262.952886004     -1259.107580473         0.000000000
         1            1.000000         3.822009624       298.219358331     -1262.923483854     -1259.100147587        60.679911692
         2            2.000000         3.781722577       295.075887101     -1262.879100574     -1259.095211624        13.173837490
         3            3.000000         3.783544760       295.218066313     -1262.884371737     -1259.097836461        12.590853821
         4            4.000000         3.813890376       297.585839033     -1262.913597669     -1259.095900484        12.590420246
         5            5.000000         3.868586897       301.853636103     -1262.978585343     -1259.105371710        13.215250157
         6            6.000000         3.865910416       301.644798724     -1262.970211845     -1259.098845807        12.598379601
         7            7.000000         3.859514455       301.145742084     -1262.971467721     -1259.105665513        12.603930239
         8            8.000000         3.899426390       304.259944481     -1263.023332964     -1259.116778856        12.617753197
         9            9.000000         3.888073629       303.374124335     -1262.956544549     -1259.060490310        12.614940401
        10           10.000000         3.843381186       299.886913924     -1262.912225712     -1259.060009218        12.625483941
        11           11.000000         3.799541660       296.466254002     -1262.880238428     -1259.071016712        12.607541550
        12           12.000000         3.808258756       297.146421486     -1262.860305550     -1259.041533452        12.622073825
        13           13.000000         3.898797299       304.210858488     -1262.934077003     -1259.023927383        11.978695795
        14           14.000000         3.921287839       305.965724422     -1262.954632775     -1259.021131981        12.617790807
        15           15.000000         3.889352549       303.473914439     -1262.979791395     -1259.077352067        12.625307627
        16           16.000000         3.886919131       303.284042528     -1262.982823350     -1259.081937598        12.602834716
        17           17.000000         3.886322545       303.237492815     -1262.981347600     -1259.080170277        13.210910715
        18           18.000000         3.881309390       302.846332075     -1262.982068241     -1259.085008193        12.624538865
        19           19.000000         3.831256306       298.940847777     -1262.929584078     -1259.081681309        12.624791514
        20           20.000000         3.789369178       295.672527322     -1262.842835500     -1259.035937126        11.966140978
        21           21.000000         3.841269796       299.722168840     -1262.931109111     -1259.071434854        12.618468553
        22           22.000000         3.893900610       303.828785276     -1262.991238789     -1259.078047075        12.645775903
        23           23.000000         3.878025443       302.590096108     -1263.016010320     -1259.117794676        12.620702710
        24           24.000000         3.820556073       298.105942343     -1262.956470956     -1259.114828410        12.604271512
        25           25.000000         3.781671268       295.071883642     -1262.910036471     -1259.106397954        12.599055648
        26           26.000000         3.813358432       297.544333103     -1262.904419976     -1259.068225070        12.650581494
        27           27.000000         3.823446768       298.331494205     -1262.918251747     -1259.071101244        12.592734054
        28           28.000000         3.780448921       294.976507807     -1262.866177218     -1259.061166537        12.641430940
        29           29.000000         3.781581546       295.064882893     -1262.832072739     -1259.025087697        11.987814568
        30           30.000000         3.813423083       297.549377635     -1262.825733788     -1258.986073520        11.970720120
        31           31.000000         3.845580555       300.058523752     -1262.870749058     -1258.998096818        11.997984387
        32           32.000000         3.823374835       298.325881459     -1262.849970459     -1258.998689526        11.973629128
        33           33.000000         3.752732597       292.813890423     -1262.769810790     -1258.988353145        12.017757524
        34           34.000000         3.764091300       293.700174167     -1262.770582680     -1258.976969787        12.670765810
        35           35.000000         3.831070963       298.926386035     -1262.852966781     -1258.991583923        12.631799795
        36           36.000000         3.859344189       301.132456773     -1262.879916001     -1258.989463346        12.596023455
        37           37.000000         3.845328819       300.038881606     -1262.866751535     -1258.989514290        12.609247506
        38           38.000000         3.822227782       298.236380570     -1262.830677810     -1258.975745544        12.016547021
        39           39.000000         3.845232900       300.031397354     -1262.879392801     -1259.000662644        12.044504058
        40           40.000000         3.861606663       301.308990470     -1262.904037801     -1259.008137019        11.995188776
        41           41.000000         3.810765136       297.341986440     -1262.913818709     -1259.067964378        12.669295367
        42           42.000000         3.779125282       294.873228386     -1262.881928200     -1259.066933319        12.605896045
        43           43.000000         3.819700562       298.039189558     -1262.884458574     -1259.028118185        12.619885627
        44           44.000000         3.890279711       303.546257941     -1262.960061412     -1259.032364507        12.646282542
        45           45.000000         3.912423971       305.274104733     -1263.023003572     -1259.072367533        12.610833772
        46           46.000000         3.868055710       301.812189223     -1262.972548326     -1259.065475791        12.025600228
        47           47.000000         3.844997166       300.013003744     -1262.952025502     -1259.067208335        11.994675647
        48           48.000000         3.852414196       300.591731248     -1262.984164870     -1259.091128131        12.017300740
        49           49.000000         3.853266611       300.658242463     -1262.987596075     -1259.092901953        12.630059689
        50           50.000000         3.836675589       299.363697344     -1262.962009253     -1259.083101359        12.676505189
        51           51.000000         3.832918508       299.070544186     -1262.934177695     -1259.058225295        11.995616443
        52           52.000000         3.889517220       303.486763192     -1262.996609002     -1259.063251410        12.020438787
        53           53.000000         3.947977471       308.048232210     -1263.063157147     -1259.070511373        12.041680459
        54           54.000000         3.926610853       306.381062410     -1263.081803236     -1259.109672919        12.615876134
        55           55.000000         3.868307286       301.831818938     -1263.061666151     -1259.146980936        12.614601105
        56           56.000000         3.846386963       300.121445236     -1263.040969586     -1259.147349137        12.641855948
        57           57.000000         3.852789110       300.620984556     -1263.050668043     -1259.149790302        12.643258099
        58           58.000000         3.846158270       300.103601055     -1263.048173529     -1259.153069950        12.624391172
        59           59.000000         3.807973616       297.124172900     -1263.005445518     -1259.147675131        12.625141688
        60           60.000000         3.802573247       296.702799168     -1262.998242493     -1259.145032059        12.627864655
        61           61.000000         3.844311696       299.959518690     -1263.046152426     -1259.150366065        12.606049575
        62           62.000000         3.859899169       301.175760068     -1263.088071403     -1259.175854268        12.638907913
        63           63.000000         3.824087818       298.381513270     -1262.980898501     -1259.103649605        12.661736023
        64           64.000000         3.773453371       294.430667061     -1262.840953855     -1259.013509930        12.658709127
        65           65.000000         3.792610212       295.925414963     -1262.862562368     -1259.015147614        12.677858856
        66           66.000000         3.852936582       300.632491350     -1262.930841235     -1259.022286626        12.613543913
        67           67.000000         3.858769874       301.087644735     -1262.912701026     -1258.997492017        11.998506356
        68           68.000000         3.825245064       298.471809575     -1262.850052055     -1258.967547568        11.992070425
        69           69.000000         3.815066270       297.677590361     -1262.841539942     -1258.968401608        12.007456820
        70           70.000000         3.855275201       300.814966457     -1262.882644000     -1258.968485243        12.017368164
        71           71.000000         3.881872537       302.890272664     -1262.959756220     -1259.018179450        11.987613596
        72           72.000000         3.849805781       300.388204873     -1262.882548170     -1258.972211729        12.000520781
        73           73.000000         3.834318843       299.179807914     -1262.861059344     -1258.965386711        12.621984635
        74           74.000000         3.890649728       303.575129258     -1262.921838045     -1258.969006939        11.983206570
        75           75.000000         3.952546267       308.404721005     -1262.988470252     -1258.972892440        12.008704159
        76           76.000000         3.949623370       308.176656527     -1262.986519767     -1258.972987435        12.006766949
        77           77.000000         3.896333704       304.018631973     -1262.927058178     -1258.965923834        11.994783107
        78           78.000000         3.874170432       302.289301709     -1262.881790315     -1258.941924492        11.997395754
        79           79.000000         3.902963543       304.535937377     -1262.978955002     -1259.009392881        12.653702140
        80           80.000000         3.912762917       305.300551592     -1262.989591775     -1259.009310847        12.637065433
        81           81.000000         3.886467028       303.248766371     -1262.959282751     -1259.004366935        12.675079796
        82           82.000000         3.877037608       302.513018456     -1262.947438424     -1259.001016249        12.050941724
        83           83.000000         3.914056132       305.401457103     -1262.989592929     -1259.005204990        11.986325126
        84           84.000000         3.944896046       307.807798329     -1263.035381457     -1259.019183706        12.606361642
        85           85.000000         3.912324763       305.266363841     -1263.007139661     -1259.022524318        11.974955589
        86           86.000000         3.843983934       299.933944487     -1262.947689950     -1259.030426168        12.006407242
        87           87.000000         3.825756251       298.511695875     -1262.930106080     -1259.030090312        11.962663118
        88           88.000000         3.861433643       301.295490206     -1262.972428312     -1259.035755404        12.658836816
        89           89.000000         3.875788671       302.415567811     -1262.986926702     -1259.034909541        12.664278537
        90           90.000000         3.849838575       300.390763670     -1262.929707062     -1259.002646788        12.596210118
        91           91.000000         3.830569770       298.887279529     -1262.947379594     -1259.038599328        12.637778942
        92           92.000000         3.856747241       300.929825037     -1262.980291848     -1259.044345940        12.602038540
        93           93.000000         3.877343680       302.536900263     -1263.002649379     -1259.045110417        12.600961287
        94           94.000000         3.848554006       300.290532775     -1262.967931570     -1259.038181302        12.602276810
        95           95.000000         3.812334230       297.464417888     -1262.946433381     -1259.051909665        11.991771664
        96           96.000000         3.818636879       297.956193701     -1262.953121605     -1259.051311229        12.650313467
        97           97.000000         3.859115293       301.114596699     -1263.031811692     -1259.088537202        12.607063081
        98           98.000000         3.869775204       301.946355958     -1263.043108983     -1259.088180192        12.603620686
        99           99.000000         3.839759441       299.604320626     -1262.996505091     -1259.070596219        12.030237768
       100          100.000000         3.819493163       298.023006822     -1262.974411752     -1259.067780642        12.632697985
       101          101.000000         3.835107560       299.241349033     -1262.993770760     -1259.070541595        12.625323698
       102          102.000000         3.845553179       300.056387719     -1263.006558536     -1259.071898955        12.607530080
       103          103.000000         3.823689814       298.350458305     -1263.037741556     -1259.123962837        13.273501676
       104          104.000000         3.813646614       297.566819092     -1263.065607193     -1259.160897370        13.258153196
       105          105.000000         3.840812412       299.686480592     -1263.096438263     -1259.163591678        13.229772378
       106          106.000000         3.873241589       302.216827059     -1263.124931557     -1259.158678210        13.278400842
       107          107.000000         3.859260653       301.125938722     -1263.110161922     -1259.156905349        12.648795504
       108          108.000000         3.813115962       297.525413972     -1263.099071830     -1259.190981696        13.221196536
       109          109.000000         3.796289750       296.212517667     -1263.062703520     -1259.170475293        13.231057089
       110          110.000000         3.820871102       298.130523057     -1263.091889740     -1259.174123870        13.290034134
       111          111.000000         3.844553960       299.978421796     -1263.085340908     -1259.142935055        12.615789805
       112          112.000000         3.843751622       299.915817888     -1263.060005318     -1259.117442944        12.612395484
       113          113.000000         3.847855269       300.236012547     -1263.044084287     -1259.096459577        12.673287760
       114          114.000000         3.874163562       302.288765718     -1263.055452711     -1259.080556580        12.599740997
       115          115.000000         3.876829791       302.496803091     -1263.112623278     -1259.134089419        12.590573967
       116          116.000000         3.831785886       298.982169259     -1263.064757657     -1259.130296885        12.616645135
       117          117.000000         3.785970210       295.407316577     -1263.035890078     -1259.146288813        13.236176401
       118          118.000000         3.791384263       295.829757991     -1263.043064843     -1259.147109422        13.284036350
       119          119.000000         3.841433577       299.734948146     -1263.080376770     -1259.133435229        12.598468307
       120          120.000000         3.866865620       301.719330301     -1263.108118356     -1259.134800687        12.599287480
       121          121.000000         3.851621044       300.529844106     -1263.051774396     -1259.092753301        12.602701019
       122          122.000000         3.844870391       300.003111907     -1262.994926775     -1259.041710220        12.643746894
       123          123.000000         3.853910818       300.708507908     -1263.007791323     -1259.044588335        12.608862977
       124          124.000000         3.850492859       300.441815388     -1263.049560916     -1259.088828503        12.614622537
       125          125.000000         3.811440894       297.394713711     -1263.017156413     -1259.094534408        11.975082185
       126          126.000000         3.785474605       295.368646013     -1262.961865463     -1259.064283322        12.042232152
       127          127.000000         3.811156241       297.372503127     -1262.995573428     -1259.071394618        12.615404263
       128          128.000000         3.852619694       300.607765624     -1263.005977473     -1259.039419322        12.604127657
       129          129.000000         3.851815162       300.544990495     -1263.032081288     -1259.065407358        12.685017258
       130          130.000000         3.808841364       297.191880536     -1262.978443109     -1259.053828515        12.628271412
       131          131.000000         3.787722956       295.544077783     -1262.939067471     -1259.034672022        12.621967420
       132          132.000000         3.808983862       297.202999255     -1262.965769011     -1259.039224621        12.587223206
       133          133.000000         3.822054995       298.222898515     -1263.013947519     -1259.073448270        12.617498245
       134          134.000000         3.807208016       297.064435572     -1263.003555228     -1259.077025664        12.616416138
       135          135.000000         3.803768504       296.796061294     -1262.995910002     -1259.071952959        12.615952589
       136          136.000000         3.820300546       298.086004398     -1263.034599631     -1259.093250756        12.656387992
       137          137.000000         3.839395599       299.575931182     -1263.018330114     -1259.057028252        11.988914538
       138          138.000000         3.819218641       298.001586735     -1262.998802236     -1259.056822640        12.579635538
       139          139.000000         3.773105915       294.403556182     -1263.004009554     -1259.107302138        12.636969607
       140          140.000000         3.778685627       294.838923485     -1263.084216871     -1259.181107580        12.615807101
       141          141.000000         3.821142559       298.151704018     -1263.135391578     -1259.189011196        13.234672058
       142          142.000000         3.854575916       300.760403465     -1263.171678940     -1259.191048920        12.631500538
       143          143.000000         3.850376946       300.432771055     -1263.133245970     -1259.155995592        12.590210415
       144          144.000000         3.834048882       299.158743724     -1263.112357271     -1259.150618086        13.275721405
       145          145.000000         3.846770440       300.151366759     -1263.131336344     -1259.156061630        13.219369583
       146          146.000000         3.834934814       299.227870181     -1263.120390851     -1259.156139015        13.255032703
       147          147.000000         3.795096875       296.119441466     -1263.132685700     -1259.207468262        13.863477554
       148          148.000000         3.778638764       294.835266900     -1263.120086690     -1259.210540056        13.260652583
       149          149.000000         3.790583144       295.767249209     -1263.092938575     -1259.170674135        13.225601669
       150          150.000000         3.840612074       299.670848842     -1263.146902005     -1259.173839768        13.196680598
       151          151.000000         3.869331567       301.911740381     -1263.171047788     -1259.168491692        12.637508135
       152          152.000000         3.834935787       299.227946117     -1263.084756578     -1259.115820210        12.585855681
       153          153.000000         3.816119770       297.759791618     -1263.031475901     -1259.080587501        13.244935442
       154          154.000000         3.811231992       297.378413720     -1262.994080630     -1259.047320746        12.647197623
       155          155.000000         3.804116107       296.823183683     -1262.983823609     -1259.043429299        12.583973408
       156          156.000000         3.795370964       296.140827733     -1262.954140762     -1259.021751967        12.606347829
       157          157.000000         3.784331818       295.279477946     -1262.930096322     -1259.008019790        12.597599875
       158          158.000000         3.825090091       298.459717456     -1262.974070901     -1259.010518071        12.584353846
       159          159.000000         3.867004829       301.730192325     -1263.020887398     -1259.014698906        12.618174113
       160          160.000000         3.846526321       300.132318949     -1262.961553423     -1258.975118612        11.979471952
       161          161.000000         3.811677950       297.413210404     -1262.928209083     -1258.975904010        11.988587733
       162          162.000000         3.790759458       295.781006453     -1262.899838300     -1258.967745489        11.962235648
       163          163.000000         3.815889286       297.741807686     -1262.953538951     -1258.995620207        12.589473601
       164          164.000000         3.864708384       301.551007940     -1263.007713571     -1259.000278976        12.616671577
       165          165.000000         3.862535475       301.381462691     -1263.019050134     -1259.013085674        12.594169118
       166          166.000000         3.866766481       301.711594789     -1263.006811588     -1258.995910364        11.984197583
       167          167.000000         3.882329937       302.925962184     -1263.029801472     -1259.002625441        12.669589572
       168          168.000000         3.864607834       301.543162320     -1263.010058415     -1258.999887544        11.986255337
       169          169.000000         3.854106037       300.723740228     -1263.003849701     -1259.003463059        12.035047244
       170          170.000000         3.821354005       298.168202505     -1262.965065711     -1258.996717164        12.005661428
       171          171.000000         3.820247562       298.081870261     -1262.960942119     -1258.992994005        11.995390594
       172          172.000000         3.871564089       302.085936982     -1263.034229919     -1259.014259126        12.615992699
       173          173.000000         3.877848075       302.576256626     -1263.034436486     -1259.007466897        12.626886535
       174          174.000000         3.878031129       302.590539769     -1263.034917617     -1259.007043948        11.993750449
       175          175.000000         3.871850523       302.108286544     -1263.032244737     -1259.009825562        11.999045070
       176          176.000000         3.856204315       300.887462304     -1263.014622128     -1259.007120786        12.006275143
       177          177.000000         3.870961261       302.038900232     -1263.075596480     -1259.052607732        12.669276450
       178          178.000000         3.849585407       300.371009753     -1263.076817466     -1259.074471280        12.621085681
       179          179.000000         3.843596602       299.903722147     -1263.064974851     -1259.067886317        12.613338232
       180          180.000000         3.893234054       303.776776010     -1263.138420160     -1259.090958593        12.648474157
       181          181.000000         3.906115017       304.781836947     -1263.150136834     -1259.089044777        12.628150098
       182          182.000000         3.904978113       304.693127939     -1263.135769204     -1259.075052201        12.604050338
       183          183.000000         3.882538266       302.942217400     -1263.149525526     -1259.110478087        12.631555270
       184          184.000000         3.855206241       300.809585722     -1263.115153206     -1259.102665873        12.634126268
       185          185.000000         3.880898208       302.814248857     -1263.119134580     -1259.080181012        12.667267743
       186          186.000000         3.867149141       301.741452564     -1263.115456779     -1259.089471470        12.613457941
       187          187.000000         3.839735260       299.602433825     -1263.046614903     -1259.047263610        12.619445208
       188          188.000000         3.849294899       300.348342294     -1263.045472124     -1259.035784159        12.641024161
       189          189.000000         3.849209923       300.341711913     -1263.039965968     -1259.029585270        12.990720209
       190          190.000000         3.868287898       301.830306123     -1263.076514710     -1259.046275989        12.628973100
       191          191.000000         3.839607448       299.592461099     -1263.051309040     -1259.048969134        12.643135630
       192          192.000000         3.773775638       294.455812541     -1262.976156099     -1259.038878828        11.990969304
       193          193.000000         3.785270240       295.352700069     -1263.003778820     -1259.054256282        12.635063820
       194          194.000000         3.803097535       296.743707731     -1263.024229379     -1259.056138484        12.594265927
       195          195.000000         3.811179303       297.374302564     -1263.031959583     -1259.055052740        12.690383933
       196          196.000000         3.818110140       297.915093900     -1263.047816613     -1259.063250908        12.654887274
       197          197.000000         3.790086233       295.728476814     -1263.011464370     -1259.054203587        12.615125511
       198          198.000000         3.811119430       297.369630835     -1263.076930535     -1259.097928728        12.676215284
       199          199.000000         3.809737872       297.261832222     -1263.082163392     -1259.103841573        12.624793630
       200          200.000000         3.757580416       293.192150460     -1263.042889312     -1259.116037279        12.623651426
       201          201.000000         3.757165725       293.159793428     -1263.049217631     -1259.122114016        12.738611668
       202          202.000000         3.762317618       293.561779371     -1263.018427814     -1259.085523406        12.673840519
       203          203.000000         3.789428999       295.677194927     -1263.049863480     -1259.089212436        12.624627717
       204          204.000000         3.801153749       296.592040238     -1263.014814968     -1259.041812686        12.632255603
       205          205.000000         3.750921968       292.672612711     -1262.952466391     -1259.029083354        12.624741327
       206          206.000000         3.754624350       292.961497952     -1262.965147756     -1259.037471279        12.650092546
       207          207.000000         3.757244446       293.165935784     -1262.964466116     -1259.033596263        12.669250336
       208          208.000000         3.720721482       290.316164033     -1262.918841454     -1259.023942421        12.686409395
       209          209.000000         3.722529054       290.457203206     -1262.962047229     -1259.064814713        12.633305471
       210          210.000000         3.723583850       290.539505609     -1262.956282568     -1259.057493346        12.680453911
       211          211.000000         3.771722924       294.295645773     -1263.007455002     -1259.060044457        12.624719501
       212          212.000000         3.821004613       298.140940520     -1263.068349099     -1259.071183167        12.642702322
       213          213.000000         3.780665161       294.993380296     -1262.984607573     -1259.027314123        12.628674541
       214          214.000000         3.770183428       294.175523686     -1262.923484135     -1258.976220805        12.648155544
       215          215.000000         3.780961657       295.016514920     -1262.941172457     -1258.982693736        12.634878919
       216          216.000000         3.796545433       296.232467871     -1262.951330887     -1258.976842458        12.668079551
       217          217.000000         3.827736568       298.666213760     -1262.993017884     -1258.986919206        12.621931858
       218          218.000000         3.799370476       296.452897061     -1262.953344124     -1258.975197348        12.640607242
       219          219.000000         3.822395083       298.249434539     -1262.986376742     -1258.984799404        12.647745244
       220          220.000000         3.883068374       302.983580071     -1263.060495944     -1258.997838615        12.635180678
       221          221.000000         3.870426613       301.997183352     -1263.037330642     -1258.986900119        12.605446808
       222          222.000000         3.861075768       301.267566361     -1263.014100477     -1258.972601904        12.625819623
       223          223.000000         3.826414361       298.563046120     -1262.986174791     -1258.978918579        12.634191085
       224          224.000000         3.805093117       296.899416645     -1262.957503587     -1258.971155999        12.607051127
       225          225.000000         3.848323576       300.272553026     -1263.017386655     -1258.987401136        12.616924919
       226          226.000000         3.819850415       298.050882121     -1262.979221798     -1258.977302257        11.996068195
       227          227.000000         3.800387696       296.532267503     -1262.956920510     -1258.974063734        12.623681065