    2698
 i =    23455, time =    23455.000, E =     -1268.0736341739
  C         9.2380717676       11.3696308009       11.6831287072
  O         8.2670485324       11.2950110667       12.3484463132
  O         7.5091277081       11.2396110915        9.6551498680
  N        10.2927248011       11.6100403699       11.1294180982
  H         7.4443391545       10.4952889225        8.9781629975
  H        10.5693977199       10.8145189821       10.4393109435
  H         9.5725524232       13.0539478707        9.6935499822
  O         9.9742144248       13.6691244826        9.1591927706
  H         8.1518270002       11.8771942397        9.2974124901
  H         9.8732729077       13.3954261833        8.2262854191
  O        27.0134996592       19.2889084640        4.4144253192
  H        26.9470944663       19.4840108418        5.3684021604
  H        27.5221839790       20.0708427743        4.1197899676
  O         4.2396788925       20.2155912809       -0.7169489029
  H         4.5607790341       20.1237187370        0.1978383073
  H         4.3771119093       21.1560014177       -0.8843368849
  O         8.2908711439       13.1430335538      -15.2534997793
  H         7.6135994440       13.5527525094      -14.6718865086
  H         8.6236562120       13.9827238860      -15.6650296131
  O        23.5338389633       31.7152545687        2.6377595291
  H        23.0227192998       31.9144564906        1.8125514085
  H        23.6568558364       32.6399523652        2.9746797254
  O        23.0728701460        7.7442091607        9.5877718212
  H        23.6395107617        8.4648436100        9.9366127602
  H        22.2243152722        7.9621179852       10.0164978292
  O        24.9884003246       -8.1794325031        8.4864069394
  H        25.4138084526       -7.8767165275        9.3189844998
  H        24.0291187011       -8.1145372365        8.7893540777
  O        -9.3065393839       23.9600549214       -4.3414148062
  H        -8.4196150240       23.5362863993       -4.5136492857
  H        -9.3118688575       24.5951158870       -5.0860787192
  O        -7.5595048258        0.2319036080        6.4170104672
  H        -7.9671126996        0.9902959056        6.8721724905
  H        -6.9784308555        0.6937451871        5.7624467140
  O        26.4743849684        5.7864870423        0.7309603654
  H        25.7948816390        5.4736656981        0.0781721563
  H        26.5217124262        6.7341656919        0.4184860856
  O        19.2808432255       30.0111637646       -6.1592332452
  H        18.6111198394       30.5565844170       -5.6717313774
  H        19.6681113256       30.6896304681       -6.7358072923
  O         0.1090479740       10.0291223210        3.1112546193
  H         0.5111952790       10.9259530070        3.2896578009
  H        -0.5890239912       10.3766043502        2.4726595649
  O         7.7946555343       22.1738866504       -2.3253860698
  H         8.1188307525       22.6685950004       -1.5449041978
  H         6.8458913736       22.0908633097       -2.1286405550
  O        20.4564239570        9.7580389336       -3.0716091128
  H        19.9117799252       10.2068914236       -3.7526696355
  H        20.7977943372       10.5412250090       -2.6026792888
  O         2.7210302277        8.5837852543      -10.9116502440
  H         2.1712068356        8.2555734523      -11.6691813815
  H         2.3795012334        9.5248834338      -10.8810428836
  O        21.2172859748        1.0460891159       -3.8258776766
  H        21.1078943745        2.0342666981       -3.7532965009
  H        21.6790004503        1.0336373957       -4.7227964694
  O         9.7533815717        8.2282136479      -10.3113115229
  H         9.0735643656        8.5722364631       -9.7192921559
  H         9.5832080550        8.7509805027      -11.1282248261
  O        -3.6974146037       22.8225642478       -3.0570207355
  H        -4.4239673453       23.0952789083       -2.4785381456
  H        -2.9649480035       23.3896748192       -2.7418073035
  O        25.7067355262        2.8007179231        2.1561635816
  H        26.4901141867        3.2881314313        2.2055151533
  H        25.7449611793        2.3839927149        1.2966033207
  O        23.7557883383       30.4165860344       -7.4294320742
  H        24.1202887114       30.1506475088       -8.2982652882
  H        24.0153164747       31.3249897706       -7.3290213533
  O         7.1198509279       16.9325938424      -14.2585324320
  H         7.6493108200       17.1179326350      -13.4467015625
  H         6.4158132209       17.6249142873      -14.1798801582
  O        14.8460349067       18.8154783748      -10.5862714974
  H        14.6528229843       19.8129454481      -10.5388311668
  H        15.6256433333       18.8719942295      -11.1950391044
  O        12.3124919011       21.6174397437      -18.5416538987
  H        11.9802488861       20.9196974785      -19.0792790110
  H        11.6935522911       21.6473335817      -17.7937149204
  O        22.6836781376       14.6836532794       -6.5262620606
  H        23.1668425254       15.1294068793       -5.8002770111
  H        22.2102709388       15.4566994027       -6.8875228754
  O        30.8473586703        7.0587094080       -0.4627959225
  H        30.4158025468        7.7322575577        0.0090211464
  H        31.7410247178        7.4249173193       -0.6175403137
  O         7.7792661108       10.5144901921      -14.9688349123
  H         8.2995846124       10.3318246794      -15.7525016638
  H         7.7752838676       11.5155095938      -14.9888594656
  O        20.4312952071       11.5314420148       -0.6711703608
  H        20.6426101683       10.9717953631        0.0680313568
  H        21.2245042066       12.0995518229       -0.7738431828
  O        15.2682873971        7.2647586127        2.1364684281
  H        15.8110420077        8.1032762800        2.0335459100
  H        14.4187563642        7.5343285595        1.7119795980
  O         3.1538150033       30.8222774121       -1.0607877170
  H         2.3048979270       31.0356329888       -1.4727796338
  H         3.6950771111       31.6270850511       -1.3467238457
  O        23.5675849667       11.7841661241      -13.9971407983
  H        24.3968359613       12.2088450826      -14.2204787392
  H        22.9369165831       12.5039036425      -13.9961469320
  O        12.0879800854        2.1756254992      -10.2062445742
  H        12.1405985612        1.5525604437      -10.9733629601
  H        11.1082782372        2.3452420189      -10.1875087693
  O        19.3539078583        7.8652133636       -1.4303061618
  H        18.5818382658        7.6321198210       -2.0151696608
  H        19.6988642813        8.6499830416       -1.8737340135
  O        -1.7075710294       11.4681098919      -11.0855870986
  H        -1.2522457421       12.2801633728      -10.8274471522
  H        -2.6600353768       11.7544176824      -11.0783700622
  O        27.4911457714        3.4903460581        7.1087026994
  H        27.3977622469        3.2277816268        8.0228809075
  H        27.8023225929       36.4178634312        7.1542691849
  O        10.5619380776        0.5792210021       -3.7257712815
  H        10.5618756136        1.4124370224       -3.1843235214
  H        10.6033820645        0.9956336458       -4.6175626040
  O         1.5495444056        5.9384875619        2.2205275269
  H         1.3055341716        6.7953504857        1.8148934510
  H         1.9538587243        5.5493088576        1.3793922838
  O         3.7145192466       -7.9146268516      -11.1423516915
  H         3.8860361220       -7.5387917022      -10.2716566303
  H         3.0904775734       -7.2283851510      -11.4789447218
  O        24.9495269120       16.2502977819        6.3042314539
  H        24.2176574858       16.7291799418        5.8946487008
  H        25.0910772607       16.7360299278        7.1179256840
  O        22.9089692078       11.3331760149        8.8304777346
  H        21.9114498301       11.2963482977        8.8842029202
  H        22.9701205020       12.2536303929        8.4759171987
  O        24.5379598307       10.4956389598       -0.2984091506
  H        23.9131644271       10.5603663279        0.4393063147
  H        24.2782201273       11.2186824845       -0.8874865258
  O         7.1623377459       12.6489135673      -11.6579724649
  H         7.1740844966       13.3528571016      -12.3248825918
  H         7.9294073344       12.1167954678      -11.9445581340
  O         9.6179462502        3.1024832600        3.1020434904
  H         9.7311279249        2.6810218529        2.2076179910
  H         8.6067166693        3.2675055276        3.0092630381
  O        13.2766515098        1.9515908496       -4.2771199153
  H        13.3093344638        2.9277440642       -4.0771652135
  H        14.2156669669        1.7960500817       -4.4641478612
  O         1.0102771847        4.7441980952      -13.8870942308
  H         0.8761582088        5.4880286163      -13.2803797113
  H         0.1443119454        4.6878599211      -14.3292464897
  O        28.6419509268        1.1980474911        0.6709742937
  H        28.2333182311        1.1363128914       -0.1990914377
  H        28.6555776940        2.1298346358        0.8269378394
  O        13.2807331773       11.7280813318        0.5806112957
  H        13.2281655333       12.6510862732        0.2839551723
  H        14.1426089380       11.6174560893        0.9120249355
  O         8.0026389293       20.1934049819       -8.7866603715
  H         8.2675143003       20.4008507654       -7.8699059620
  H         8.4944472069       20.9657636814       -9.2285909123
  O         9.4218223536       13.3970889848       -6.0024029592
  H        10.3169455248       13.6645526986       -5.6538662332
  H         9.0783427027       14.3245576788       -6.1318403678
  O        20.3304803974       11.5625705860        7.3448994238
  H        19.5177145285       12.0879947031        7.4604547578
  H        20.3337396174       11.4400050973        6.3810667557
  O        14.9313205718       13.8102568146       10.9003151054
  H        14.4246914832       13.0557523503       10.5869026701
  H        15.8779769382       13.6907969899       10.8431510056
  O         7.8613687723       -3.2998003455      -12.6442049827
  H         8.1513735069       -3.1057953127      -11.7182343639
  H         7.8919779792       -4.2787359236      -12.5667556017
  O        17.0200916006       14.6991462341       -1.4729040182
  H        17.4490772836       15.4557259001       -1.0195081468
  H        16.3809245473       15.1074887667       -2.0509225932
  O        17.3914287260       17.2006397079        9.8107817968
  H        16.7426655946       16.6938185486       10.3799602771
  H        18.1141282039       16.7552865319       10.1786593859
  O         7.3557075397       18.4379251096        3.5714752347
  H         8.3193837799       18.4218243345        3.7222910544
  H         7.0703435290       19.0159154564        4.3616608847
  O         4.0868040764       25.8034897685       -8.6778661449
  H         4.2883780627       26.3513046575       -9.4422744950
  H         3.5721911058       26.4986918679       -8.1204790600
  O         4.8834934483        2.5084295004      -15.0242526756
  H         4.5320435907        2.9834557975      -15.8268973268
  H         3.9470975508        2.2458198920      -14.6958301883
  O        12.1164195206       16.5064816358        5.2413309087
  H        11.2273693029       15.9219667302        5.2532079256
  H        12.6886549699       15.7667907247        5.5173888071
  O         1.0789524256       -6.3592194878        8.0114695968
  H         1.3185840728       -5.6795821436        7.3249024127
  H         0.3281650377       -5.9178746317        8.4208126884
  O        19.2703794268        3.7925827681        2.3232168778
  H        19.8348778256        3.9153911037        1.5006789174
  H        19.0067362881        4.7433112371        2.4286351762
  O        26.6929874468       29.1431671148      -11.9175929421
  H        25.9371295997       29.1683577151      -12.5068052126
  H        27.3364485082       29.7634428467      -12.2571968114
  O         7.6430653320        2.3026526713       -9.5109828803
  H         7.4438957185       34.4250575918      -10.4455358098
  H         8.3608245478        2.9228324888       -9.3649105211
  O         8.7859002023       16.0713810822       -6.0767271768
  H         7.9750524660       16.0753828284       -5.5411479962
  H         9.3660663574       16.7070897005       -5.6134644123
  O        23.0053613313       17.9386399874        5.0189845905
  H        22.9680440679       18.7750575370        5.5577587046
  H        22.0971257598       17.6181393985        5.2592406184
  O         7.0852636942        5.9101148934        0.5921856077
  H         6.1948481964        6.2763390997        0.5152533585
  H         7.5801534886        6.6609132459        0.9209572470
  O        34.0482809676       11.3765535490        7.8256336090
  H        34.1573635560       11.8902693330        8.6653183301
  H        34.1839864891       12.1278534980        7.1774798239
  O         6.9277706833        8.8581847193       -8.5200803548
  H         6.7239614357        9.7496645795       -8.1548461269
  H         6.5445284890        8.9898143953       -9.4443972008
  O        17.2156714034       20.1225109854        2.6072941034
  H        16.3103627839       20.4548476519        2.7029414597
  H        17.6981316203       20.8752391676        3.0407357295
  O        14.2772784610       28.9761186117        1.4470379869
  H        14.0482118130       29.7158142454        2.0880709004
  H        14.4374300667       29.5199023673        0.6297517985
  O        17.0466797170       16.1109015454      -13.5702091147
  H        17.4659295366       16.6157360380      -14.3115186350
  H        17.1076651089       16.8187434230      -12.8815633038
  O        10.9592132534       -1.4847131780       10.4519325376
  H        10.3343065938       -2.2584254703       10.4827053988
  H        10.3674147384       -0.8719556451        9.9609566891
  O        11.1812559538       26.5199931475        2.5833694781
  H        11.6633200694       26.5506695034        3.4670159182
  H        11.0407550860       27.4895159045        2.5352250722
  O         3.7725809007        4.9588805898       -4.8268428659
  H         4.3735369398        5.5871888149       -5.2580570110
  H         2.9961038432        5.6170995207       -4.6720382098
  O         0.8184141169       22.5206332464      -11.1937982492
  H         0.1213666727       22.7326359042      -10.5579088366
  H         0.7741807730       23.3488641813      -11.7402323873
  O         3.8202086047        2.2544477667       -4.3432175660
  H         4.2886646770        3.0826876287       -4.4547867509
  H         3.1921209188        2.1975797864       -5.0579826791
  O        19.2008441633       21.5326708032      -15.0841542381
  H        19.0263174225       22.4846984425      -14.9065960388
  H        20.1074273500       21.4525955166      -14.7235259694
  O        15.9034231150        3.3506579632       11.2520478313
  H        15.4166889540        2.5750689117       10.8535125013
  H        16.8632960926        3.0759058994       11.1918122979
  O        12.2316415149        8.0576990331       -2.0742980301
  H        12.2287534635        8.9787324958       -2.3345624272
  H        11.2828866800        7.8141538450       -2.1804571766
  O        11.7144726880       20.8839847480       -9.2112055195
  H        10.8057526888       21.1220161862       -9.4485831667
  H        12.1163114546       21.7864145754       -9.2435142577
  O        28.9133562216        5.9831172506        7.2226748361
  H        28.9625607577        6.4309435192        8.0954811927
  H        28.9684451591        6.8063516880        6.6622246975
  O        26.8071792707       10.2437688646       -4.9057812733
  H        26.6558500205       11.1696973555       -4.6997785337
  H        25.8789614857        9.8809633808       -4.9231816570
  O         9.2283175142       18.7847143640       -1.1184274913
  H         9.6366320840       19.0626632128       -0.2853172532
  H         9.4680474567       19.4870161235       -1.7244522825
  O        24.5893121768        3.3106302967       -2.0863140810
  H        24.7796710702        4.2262759697       -1.8178349907
  H        24.6970107190        3.4361655183       -3.0798886676
  O        17.5500105772       25.2057085388       -4.0058904079
  H        16.6824267916       25.1283800275       -3.5711346926
  H        18.1093664787       25.6224423252       -3.2982578560
  O        19.9540687241       21.1071791173       13.4782906878
  H        20.2460840744       20.7577886063       14.2836058398
  H        20.0684329092       20.4438572450       12.8238410060
  O        13.2511341682        7.2329911702       10.3802404100
  H        13.5874981222        6.4270077004       10.8930160579
  H        12.2601165733        6.9271801864       10.2039235667
  O         9.8949377359        1.2451799164        4.9934913942
  H         9.9738940986        1.7079962846        4.1334775689
  H         8.9289815783        1.3448129760        5.1164282036
  O        17.7305744620        9.1085634379        5.8687471770
  H        17.3174804555        9.1496679660        6.7754062501
  H        17.1221692249        8.5551181796        5.2585158428
  O        25.2632335202       27.7825487393       10.3315640049
  H        24.3635535949       27.8625450559       10.7315915771
  H        25.7164545704       28.5455445435       10.8069626535
  O         8.3189011663        9.1643272437       -0.2115813494
  H         8.4907530621       10.0236944205       -0.6533117600
  H         7.8428774350        9.4225635424        0.5618097657
  O         8.9673576351       -5.0937556249        0.4034201978
  H         8.4356506797       -4.5171531020        0.9658171066
  H         9.8131112101       -5.1024570359        0.8744090010
  O         2.8068315754       -0.3495661903        4.6819851204
  H         2.0643867749       -0.0831743944        5.2746521083
  H         3.0972830203        0.5365715926        4.3557057594
  O        -8.7647375505        2.8869393888        3.5704693253
  H        -7.8283155979        2.9601740494        3.3104014332
  H        -8.9676590226        3.8864184461        3.6243213574
  O        17.1469135924       17.8605225129        6.8307422983
  H        17.5405008919       17.4955789410        7.7490819751
  H        16.8076804902       17.0614887825        6.4165247731
  O        16.5305587838       24.1796022054      -16.9575544141
  H        15.6932974802       23.6955017640      -17.1822672267
  H        16.6123401744       24.6778803942      -17.7957342373
  O         1.1693757211        4.1185974783       -7.3802407977
  H         0.7521676695        4.9888683027       -7.3497365866
  H         0.9518549322        3.9087583544       -8.3431870871
  O        21.4232072810       26.2949351422       -9.1347939257
  H        21.6961470183       -5.1240650728       -9.8496786896
  H        20.9862948413       26.9222697257       -8.5150005926
  O        14.2501733555       26.6930601736       -0.3637563806
  H        13.8347211880       25.9962357242        0.1792467493
  H        13.8973552905       27.5070143847        0.0999168192
  O         7.0922644260        1.2129569258        8.8012236139
  H         6.4380445103        1.6295952916        8.2166712561
  H         6.6489290121        1.2881236861        9.6594333052
  O        19.1127931093       -5.0124789974       10.4867096925
  H        19.2566095133       -5.8537631877       10.9670498967
  H        20.0077364912       27.3828231195       10.5966853017
  O         1.4474787747       12.3725294208        3.1934080488
  H         0.7767688415       12.9020081044        2.6498344274
  H         1.2226446054       12.6951404033        4.0825578556
  O         6.5368043738        3.5181084330       -5.6370285814
  H         6.0560101857        3.7818544246       -6.4504707941
  H         7.0608595457        4.2922497246       -5.4412582038
  O        12.8096502067       12.5391436455       13.6366542401
  H        13.1018759110       12.3985438852       12.7299496960
  H        12.2610502732       11.6417845541       13.7332173177
  O        17.3189384538        9.1981888133       -8.4143821593
  H        17.1519138701       10.1627983993       -8.4878728584
  H        18.0728826133        9.1455415619       -9.0746260101
  O        -4.5083692155       13.7066031959       -8.2314233899
  H        -5.3610871634       14.2158721599       -8.2929885521
  H        -3.9479021338       14.2740122103       -8.8050457224
  O        24.8645970349       -1.6488831285       11.4498551776
  H        25.3658420349       -1.0538739852       10.8717327218
  H        25.3124337698       -1.3731677968       12.3077357676
  O         2.5860773741        5.2169280720      -10.8365572062
  H         2.7284845007        5.7778958072      -11.6460714278
  H         3.4598738532        5.4220808721      -10.3959834502
  O        15.7262022641        1.5753374722        9.0921417542
  H        16.6854419890        1.8347215892        9.1024259714
  H        15.6228289763        1.4017514137        8.1511378433
  O         5.5630451619       19.5096366833        1.5929290495
  H         4.8061974736       19.8786441296        2.0814640474
  H         6.1546338708       19.2245413089        2.3233907107
  O         5.0665490596       20.6896482843        9.2584069477
  H         5.3551453260       20.2403035616       10.0800267289
  H         5.9492938930       21.0618226969        8.9892838917
  O        18.6197079841        4.8057672849       -4.1579195722
  H        18.6253768836        5.6596120498       -3.6926532761
  H        18.0695987672        4.9598042230       -4.9275384315
  O        -1.3366571832       26.9749085873       -8.1337861091
  H        -0.6954696723       -5.3844233107       -8.7982737790
  H        -0.6787638912       -4.9226649565       -7.3928170073
  O        -0.1368059682       23.7277007583       -6.3879212674
  H         0.0370177869       23.8842690853       -5.4620137578
  H         0.6914465821       23.7396038296       -6.8347471715
  O       -12.8148620821       -5.3171468191        3.2545933418
  H       -12.4941874617       -4.7380424637        3.9599737812
  H       -12.5834562735       -4.7951005991        2.4643698553
  O        14.9483564851       16.0590426776      -10.2956310348
  H        14.0150691228       16.1583125967      -10.0012940865
  H        15.0886684399       16.9916550606      -10.6084089815
  O        23.4760601597        0.8155284610       -1.7346374373
  H        22.8544417727        0.7721820463       -2.4278782935
  H        24.0241385181        1.5703148883       -1.8579032632
  O        18.1559264713        7.6237482734       -4.5897839137
  H        17.8535357162        7.6298228434       -5.5328920910
  H        18.0628761584        8.6075271718       -4.4063442127
  O        12.3935759349       16.0796821445       10.9857691309
  H        13.1860585222       15.4396735490       11.0265246238
  H        12.1797768865       16.1278374718       11.8979713984
  O        25.4408426389       -7.0671270867       -7.1370264883
  H        24.5106109416       25.2104904416       -6.9724671736
  H        25.8991129319       -6.2767442569       -6.7498176773
  O        -3.8104035544       -0.0010143673        5.6348567221
  H        -4.6581962932        0.4113644029        5.3372493536
  H        -3.2451133837        0.1846003281        4.8340780299
  O        27.4590018518       27.0389582606      -10.6475603459
  H        27.2231645398       27.7423813907      -11.2797676388
  H        27.6698233970       26.3361319011      -11.3083532660
  O       -55.2986877380      -15.4921799000       19.3947352496
  H       -55.0991673994      -14.7184988830       19.9310209214
  H       -54.8714948041      -16.2189556719       19.8272252742
  O         7.3056555557        4.4341411694        2.8738046708
  H         6.3490861672        4.3331311917        2.7523712823
  H         7.5021488642        5.1060737487        2.1844526795
  O        26.1913725074       -0.6187319963        1.4413169123
  H        25.9662402349       -1.4158148185        0.9123683587
  H        25.3534755543       -0.4753751703        1.9350760616
  O        17.7276283500       13.5819495904        5.3004559501
  H        17.5552044207       13.8127879909        4.3469425512
  H        17.3187475062       12.6477532466        5.1679854506
  O        -4.6325057971        5.7916261235       -5.7135305876
  H        -4.1681671746        6.5928616653       -5.4597385118
  H        -4.9322508965        5.9789987467       -6.6142904197
  O         9.4053327076       18.0832707057        6.9272030531
  H         9.3510966139       17.1297337054        6.9583344175
  H         8.7355434665       18.4179300758        6.2919134370
  O         4.8415674779       26.0743922283      -15.5936989024
  H         4.8335089887       25.2224720029      -15.0714590212
  H         3.8858831562       26.2769666559      -15.5045099286
  O        31.7812312109       34.4072415202      -12.0628333451
  H        31.6480437679       34.3532081340      -13.0134146759
  H        -1.0068282846       34.9383299694      -11.7624712937
  O        -2.2697287094       37.0001697372       -2.5155091932
  H        -2.2651679023       37.9647292054       -2.4752923418
  H        -3.2283067629       36.8216297890       -2.4981151793
  O         3.5106318537       -2.1783918925        2.8792801848
  H         3.6821899262       -1.4435557138        2.1881669376
  H         3.0215196015       -1.5815027200        3.5216039855
  O         7.1515233961        3.2323858036      -11.9295212103
  H         6.3625176517        3.7672254844      -12.0154109937
  H         7.8231010028        3.7923191458      -12.3670097148
  O        13.8054144005       24.7838885501      -11.5801046778
  H        14.6134907277       24.9420996287      -12.1036203844
  H        13.2355577106       25.5107171902      -11.8473013879
  O        10.9135022660       10.1338932103        0.4092228969
  H        11.7067677067       10.7091533417        0.3381424686
  H        10.2637521114       10.6204178774       -0.1421371714
  O         2.1787973000       25.5979399476        3.1483205565
  H         2.5479623843       26.1507235433        2.4316011680
  H         2.9224115281       25.6404965192        3.7789864609
  O         4.8696040396       29.1169761962       -6.1513650383
  H         4.0532564667       29.5743957576       -6.4621535575
  H         5.4083743049       29.9029596504       -5.8800469844
  O        22.4797130504        0.8595279398       -6.1702506521
  H        21.8939603917        0.7859990970       -6.9407666878
  H        23.3301202959        1.1295184379       -6.5245790113
  O         3.6995966840       16.8580274109       -3.9599407087
  H         3.9046685463       17.0012321531       -3.0079770067
  H         3.8372179108       17.7834454442       -4.3175676937
  O        20.5434620434       13.0231017947       -6.7572132644
  H        21.4122963745       13.4703448582       -6.7400393467
  H        20.2956723158       13.1054162200       -5.8300383963
  O        10.3616314676       11.0239973501      -10.1763033557
  H         9.5479833942       11.1164910715       -9.6681549657
  H        10.8593582012       11.8337620300       -9.9431657107
  O        28.7668476443        3.6093535520       -5.4566609690
  H        29.3175395434        3.9951194398       -4.7509786094
  H        28.1844421475        4.3610598858       -5.6809565106
  O         9.4853949385        4.4655628804        9.8262767615
  H        10.2240114333        3.9261528033        9.5155497430
  H         9.7194971143        4.5909443537       10.7804256763
  O        15.7647697766       27.0735013745      -11.7673889526
  H        15.0958630619       27.7789103663      -11.9186897474
  H        15.7144479405       27.0017872541      -10.7932003242
  O         9.9051217938       22.0050007939      -12.9516114580
  H        10.8726478887       22.1990820739      -13.0669206043
  H         9.5558491265       22.8230637960      -13.3731442535
  O         6.5554434111       17.1229398738        8.8836754331
  H         7.2442623496       17.3073452162        8.2719175177
  H         5.9594561699       16.5062640222        8.3985918251
  O        22.8304566314       24.7050438299        2.5360916350
  H        23.0264498809       25.4543026651        1.9519710439
  H        22.3765756567       25.1892958311        3.2458279197
  O         4.5387494649       -4.4108292554      -10.9419227600
  H         4.5854693882       -4.1279111193      -11.8562870657
  H         5.1931255899       -3.8638808688      -10.4835315989
  O       -10.7716717347       15.6302723794       -2.4790045473
  H       -10.4105036456       16.4466469760       -2.8284868809
  H       -11.1232655528       15.8594406699       -1.6184009443
  O        10.2376440189        2.0917761240        0.4153686538
  H         9.5501387451        2.7676307253        0.1060584907
  H        10.9400120306        2.3805254325       -0.2443855947
  O         8.3650414749       11.3063585508       -4.3315190570
  H         7.4979212183       11.5508478954       -3.9858303128
  H         8.7367756680       12.1750629479       -4.5820843626
  O         6.5496350063       13.9249127646        7.4084097660
  H         6.1158492001       13.0361759026        7.5788200876
  H         5.9635161615       14.2173794053        6.6170091327
  O         3.0294885782       15.6927188719       -6.6746077539
  H         3.0145242042       16.4465753382       -6.0490045547
  H         3.5285623774       16.1320830343       -7.4286674635