#     Step Nr.          Time[fs]        Kin.[a.u.]          Temp[K]            Pot.[a.u.]        Cons Qty[a.u.]        UsedTime[s]
         0            0.000000         3.850530776       300.000000000     -1567.637402418     -1563.786396620         0.000000000
         1            1.000000         3.599129733       280.413008716     -1567.340658590     -1563.740232277        52.039171947
         2            2.000000         3.511201080       273.562369796     -1567.237167321     -1563.723928152        15.047624735
         3            3.000000         3.536286719       275.516825421     -1567.282830560     -1563.743830482        15.050642733
         4            4.000000         3.522980007       274.480081702     -1567.202377038     -1563.676065616        13.721676952
         5            5.000000         3.763170790       293.193666706     -1567.512313796     -1563.745229919        13.753357716
         6            6.000000         3.660217933       285.172472009     -1567.368463392     -1563.703764324        13.712848112
         7            7.000000         3.665781921       285.605969784     -1567.351699431     -1563.680909375        13.745332483
         8            8.000000         3.925603163       305.848990045     -1567.688782757     -1563.757655449        13.708576424
         9            9.000000         3.778668840       294.401140477     -1567.474973756     -1563.690251961        13.859946868
        10           10.000000         3.716920150       289.590217549     -1567.474401085     -1563.750925148        14.385722034
        11           11.000000         3.637458316       283.399239818     -1567.394253162     -1563.749771360        14.421898396
        12           12.000000         3.609693197       281.236022259     -1567.299650332     -1563.682511456        13.733645405
        13           13.000000         3.967648058       309.124763996     -1567.735858751     -1563.760361408        13.716049448
        14           14.000000         3.928548982       306.078502736     -1567.656015133     -1563.719182015        13.710206805
        15           15.000000         3.838970498       299.099323281     -1567.590200125     -1563.742502913        14.386323628
        16           16.000000         3.969394867       309.260860196     -1567.766315145     -1563.787744976        14.428450886
        17           17.000000         3.865224164       301.144781474     -1567.593392041     -1563.718523924        14.379695628
        18           18.000000         3.916577405       305.145781193     -1567.585736949     -1563.659042667        13.026026460
        19           19.000000         3.790732411       295.341029460     -1567.458368875     -1563.657041913        14.445596554
        20           20.000000         3.634088223       283.136671346     -1567.170588791     -1563.525457458        13.746481992
        21           21.000000         3.978363461       309.959615366     -1567.556542263     -1563.566705899        13.765352946
        22           22.000000         4.039714858       314.739584703     -1567.589741952     -1563.538081483        13.068867972
        23           23.000000         3.955130410       308.149497349     -1567.474991405     -1563.507408025        13.080927641
        24           24.000000         3.911603024       304.758220526     -1567.447264843     -1563.522686407        13.050470285
        25           25.000000         3.711104491       289.137111792     -1567.174798459     -1563.450203270        12.400746143
        26           26.000000         3.891479044       303.190334271     -1567.426262954     -1563.520796716        13.046734865
        27           27.000000         3.903143476       304.099125833     -1567.463096908     -1563.545452280        13.096413360
        28           28.000000         3.698076440       288.122078886     -1567.187381373     -1563.474296614        13.095261473
        29           29.000000         3.878995272       302.217706955     -1567.438693265     -1563.544203864        13.093809456
        30           30.000000         3.904584894       304.211428585     -1567.534743625     -1563.614162720        13.063036806
        31           31.000000         3.929632880       306.162950684     -1567.532989031     -1563.586843017        13.082249778
        32           32.000000         3.892020690       303.232534645     -1567.526620798     -1563.617555184        13.058906562
        33           33.000000         3.584048001       279.237970779     -1567.131624122     -1563.530020120        13.060739690
        34           34.000000         3.740833571       291.453344135     -1567.344615434     -1563.585764126        13.049042459
        35           35.000000         3.887733475       302.898511989     -1567.486613194     -1563.580401881        13.035889074
        36           36.000000         3.803759497       296.355987156     -1567.367910013     -1563.545206019        13.046704902
        37           37.000000         3.890666987       303.127065853     -1567.510450509     -1563.600376163        12.393213003
        38           38.000000         3.779952408       294.501145003     -1567.311687003     -1563.511861591        12.363354785
        39           39.000000         3.852484495       300.152216891     -1567.398945051     -1563.526132531        12.377892929
        40           40.000000         3.916091995       305.107962259     -1567.513575491     -1563.576690928        12.420181163
        41           41.000000         3.586862718       279.457269148     -1567.081457188     -1563.473348636        12.397968300
        42           42.000000         3.635461300       283.243649607     -1567.203615246     -1563.546511501        13.087357813
        43           43.000000         3.780640039       294.554719268     -1567.315602982     -1563.512951290        12.377864336
        44           44.000000         3.835279159       298.811726108     -1567.351029447     -1563.493374330        13.028275757
        45           45.000000         3.968869628       309.219938160     -1567.519803666     -1563.528184666        13.066626733
        46           46.000000         3.745571375       291.822472750     -1567.252337490     -1563.483631731        13.072846846
        47           47.000000         3.749529805       292.130879347     -1567.273970139     -1563.500945578        13.093106601
        48           48.000000         3.922479593       305.605628512     -1567.501396640     -1563.555068136        13.048224626
        49           49.000000         3.745832974       291.842854320     -1567.243906212     -1563.473863470        13.097665494
        50           50.000000         3.752647059       292.373748754     -1567.278055932     -1563.500860956        12.412730890
        51           51.000000         3.743891911       291.691623455     -1567.283997677     -1563.515238021        12.381825233
        52           52.000000         3.805013770       296.453709239     -1567.334919191     -1563.504733673        12.421787299
        53           53.000000         4.043572316       315.040124433     -1567.682694705     -1563.613637979        12.429605893
        54           54.000000         3.819986729       297.620272501     -1567.373997532     -1563.528184468        13.064488504
        55           55.000000         3.715827280       289.505070563     -1567.249864346     -1563.507884607        13.053495063
        56           56.000000         3.841830713       299.322166440     -1567.429036918     -1563.560746255        13.094681766
        57           57.000000         3.808466244       296.722696070     -1567.355900959     -1563.520667820        12.384318984
        58           58.000000         3.944337576       307.308613166     -1567.572591335     -1563.601178640        13.142026009
        59           59.000000         3.847905085       299.795428918     -1567.410980121     -1563.535675659        13.088705533
        60           60.000000         3.776525186       294.234125563     -1567.331523501     -1563.527280049        13.068416284
        61           61.000000         4.023356761       313.465103489     -1567.712457246     -1563.661061334        13.072887798
        62           62.000000         3.896458654       303.578302405     -1567.509941353     -1563.585090345        13.109345822
        63           63.000000         3.781414331       294.615045421     -1567.396138751     -1563.585978377        13.135866830
        64           64.000000         3.788624927       295.176832568     -1567.432753977     -1563.615043133        13.079019220
        65           65.000000         3.750878655       292.235970028     -1567.336283800     -1563.555992208        13.129067509
        66           66.000000         4.005680362       312.087911682     -1567.732921513     -1563.697502709        13.795790432
        67           67.000000         3.959805677       308.513753597     -1567.723703100     -1563.733798629        13.791985931
        68           68.000000         3.783648951       294.789147592     -1567.439050957     -1563.624932201        13.823958715
        69           69.000000         3.917965391       305.253921005     -1567.640174106     -1563.691373405        13.770872264
        70           70.000000         3.852580510       300.159697556     -1567.490795124     -1563.606999839        13.779852504
        71           71.000000         3.842301006       299.358807602     -1567.459657124     -1563.585761551        13.072449318
        72           72.000000         3.791202530       295.377657019     -1567.427960856     -1563.604787377        13.087874063
        73           73.000000         3.647423026       284.175603734     -1567.220595300     -1563.540845935        13.113762709
        74           74.000000         3.910192008       304.648286349     -1567.555030528     -1563.612179063        13.082791315
        75           75.000000         3.957159533       308.307588984     -1567.592180886     -1563.602006096        13.082591909
        76           76.000000         3.814217463       297.170781242     -1567.403342192     -1563.555739014        13.138108800
        77           77.000000         3.850463440       299.994753790     -1567.476724128     -1563.592509913        13.101118188
        78           78.000000         3.755690377       292.610857744     -1567.318631696     -1563.528829061        13.125153055
        79           79.000000         3.881690412       302.427688907     -1567.464257932     -1563.548103223        13.111181230
        80           80.000000         3.915759820       305.082082023     -1567.522273506     -1563.571683435        13.152390467
        81           81.000000         3.692991627       287.725914305     -1567.197283650     -1563.469095511        12.417259073
        82           82.000000         3.853615721       300.240352223     -1567.447827787     -1563.558671315        13.135489611
        83           83.000000         3.926358500       305.907839326     -1567.530813130     -1563.568557889        13.102356752
        84           84.000000         3.883643355       302.579845332     -1567.476662325     -1563.556749714        13.091923140
        85           85.000000         3.895205219       303.480645549     -1567.496360325     -1563.564503858        13.073054072
        86           86.000000         3.697817069       288.101870953     -1567.230781124     -1563.495933291        13.078686582
        87           87.000000         3.845798301       299.631286527     -1567.414703245     -1563.531515791        13.119029096
        88           88.000000         4.007015946       312.191968773     -1567.645571172     -1563.600790466        13.110622587
        89           89.000000         3.837450685       298.980912671     -1567.410523865     -1563.534906759        13.077620181
        90           90.000000         3.867419626       301.315832917     -1567.455664925     -1563.549678569        13.117442073
        91           91.000000         3.816058759       297.314239046     -1567.395868708     -1563.540839279        13.101376069
        92           92.000000         3.823453950       297.890408292     -1567.392344022     -1563.529519694        13.090458095
        93           93.000000         3.912646147       304.839491624     -1567.503272033     -1563.550850571        13.105385859
        94           94.000000         3.671560887       286.056216744     -1567.190982710     -1563.479241795        13.089296932
        95           95.000000         3.702030549       288.430148788     -1567.269801759     -1563.527222105        13.096743499
        96           96.000000         3.865754996       301.186139337     -1567.455726358     -1563.549066028        13.110457588
        97           97.000000         3.832176814       298.570018275     -1567.324103984     -1563.450657933        13.055726006
        98           98.000000         3.899223860       303.793743281     -1567.427401945     -1563.486541022        13.072535221
        99           99.000000         3.755215285       292.573842716     -1567.274618988     -1563.477394490        13.084356678
       100          100.000000         3.737095108       291.162075463     -1567.229696621     -1563.450239984        13.079897242
       101          101.000000         3.911276634       304.732791011     -1567.470464270     -1563.516480730        13.060174013
       102          102.000000         3.745368136       291.806638173     -1567.228555461     -1563.440127491        13.053685876
       103          103.000000         3.721741245       289.965835455     -1567.229663282     -1563.464531462        13.065671467
       104          104.000000         3.772483227       293.919211128     -1567.314417100     -1563.498231294        13.099439875
       105          105.000000         3.769938634       293.720958462     -1567.263439605     -1563.449497689        13.059032494
       106          106.000000         3.939928416       306.965089648     -1567.471270811     -1563.487040279        13.102913579
       107          107.000000         3.795340201       295.700028527     -1567.321360849     -1563.481405356        13.048728864
       108          108.000000         3.718398507       289.705398315     -1567.228778843     -1563.465466518        13.076667827
       109          109.000000         3.903468660       304.124461336     -1567.450053935     -1563.501385060        13.093740272
       110          110.000000         3.837450101       298.980867114     -1567.298815167     -1563.415866270        13.054312280
       111          111.000000         3.843796519       299.475325034     -1567.363304924     -1563.473710650        13.089437279
       112          112.000000         3.788907429       295.198842672     -1567.310327101     -1563.475324181        13.098473730
       113          113.000000         3.716306317       289.542392981     -1567.191759875     -1563.429074248        13.069239555
       114          114.000000         3.939019754       306.894294540     -1567.483138537     -1563.497465967        13.112754983
       115          115.000000         3.871257167       301.614820857     -1567.364489280     -1563.446286182        12.384114627
       116          116.000000         3.767768216       293.551858319     -1567.240395078     -1563.425387331        13.093535168
       117          117.000000         3.874545107       301.870988631     -1567.394885385     -1563.472814568        12.397026893
       118          118.000000         3.868094542       301.368416501     -1567.347153317     -1563.431237385        13.101023647
       119          119.000000         4.000755750       311.704228552     -1567.518279350     -1563.469390498        12.427277706
       120          120.000000         3.931245500       306.288592068     -1567.447030928     -1563.467308180        13.098681859
       121          121.000000         3.741134812       291.476814181     -1567.202497425     -1563.412534751        12.413931101
       122          122.000000         3.903769374       304.147890334     -1567.426230859     -1563.473292534        12.399134849
       123          123.000000         3.916414993       305.133127437     -1567.415551203     -1563.449606478        12.388966715
       124          124.000000         3.874641809       301.878522799     -1567.399864215     -1563.475316184        13.122112525
       125          125.000000         3.878018517       302.141606639     -1567.419534910     -1563.491224163        12.436616769
       126          126.000000         3.762612832       293.150195448     -1567.265752777     -1563.452459283        12.429830247
       127          127.000000         3.933194391       306.440432720     -1567.496544197     -1563.512282704        13.095809329
       128          128.000000         3.963972943       308.838430915     -1567.526138361     -1563.510682495        13.067335011
       129          129.000000         3.772515262       293.921707061     -1567.290656577     -1563.466227704        13.088414481
       130          130.000000         3.830964070       298.475531793     -1567.362896312     -1563.479598217        12.433566660
       131          131.000000         3.806352921       296.558044291     -1567.365119720     -1563.506010053        13.128509839
       132          132.000000         3.845986657       299.645961609     -1567.386190932     -1563.487024710        13.098818878
       133          133.000000         3.860633172       300.787091197     -1567.432445071     -1563.518201455        13.069389811
       134          134.000000         3.644815197       283.972424238     -1567.151639517     -1563.452791228        13.078090250
       135          135.000000         3.753034380       292.403925477     -1567.259062797     -1563.451604285        12.414278547
       136          136.000000         3.854111186       300.278954569     -1567.367146374     -1563.458222061        12.387132096
       137          137.000000         3.782447043       294.695505325     -1567.258244431     -1563.420591045        12.428247392
       138          138.000000         3.828339230       298.271026983     -1567.345842699     -1563.461909477        12.396033979
       139          139.000000         3.740950427       291.462448506     -1567.224193590     -1563.427264955        12.386153105
       140          140.000000         3.837646799       298.996192167     -1567.358113392     -1563.464114514        13.085718938
       141          141.000000         3.958770562       308.433106394     -1567.545710758     -1563.530199000        13.100653158
       142          142.000000         3.741328333       291.491891671     -1567.241567562     -1563.443094015        12.407329381
       143          143.000000         3.739660902       291.361979885     -1567.261527794     -1563.464338484        12.407333212
       144          144.000000         3.805809887       296.515735751     -1567.337230655     -1563.473519469        12.392802628
       145          145.000000         3.834094262       298.719409195     -1567.331046804     -1563.438677016        12.401081935
       146          146.000000         3.934790835       306.564813811     -1567.407589217     -1563.414137122        12.431179470
       147          147.000000         3.774137635       294.048108275     -1567.197818195     -1563.364619441        13.056225602
       148          148.000000         3.786048440       294.976095017     -1567.161540645     -1563.316042768        12.403514818
       149          149.000000         3.942943217       307.199976782     -1567.375677612     -1563.372890218        12.413500539
       150          150.000000         3.841449314       299.292451151     -1567.211799246     -1563.310088860        12.370129191
       151          151.000000         3.821283245       297.721285754     -1567.239705698     -1563.357743263        12.422399014
       152          152.000000         3.759933703       292.941460921     -1567.166741962     -1563.345714648        12.391080779
       153          153.000000         3.774375965       294.066676887     -1567.193419397     -1563.357546414        12.433888760
       154          154.000000         3.965694335       308.972546818     -1567.426128304     -1563.398525782        12.397902785
       155          155.000000         3.825517776       298.051203720     -1567.226018792     -1563.338156346        12.446080082
       156          156.000000         3.746815933       291.919437937     -1567.141459238     -1563.331869797        12.431825044
       157          157.000000         3.850120066       299.968001009     -1567.282933880     -1563.369618138        12.398369317
       158          158.000000         3.850433711       299.992437557     -1567.258741066     -1563.344678361        12.423511832
       159          159.000000         3.950646675       307.800163532     -1567.408297304     -1563.393571758        12.435815618
       160          160.000000         3.848587793       299.848619610     -1567.298183035     -1563.385042856        12.428653572
       161          161.000000         3.765672263       293.388559811     -1567.191140301     -1563.360444355        12.417836106
       162          162.000000         3.972098378       309.471494414     -1567.456758013     -1563.419157634        12.437947231
       163          163.000000         3.946314345       307.462625928     -1567.390587817     -1563.378253505        12.405793821
       164          164.000000         3.882686672       302.505308857     -1567.341612303     -1563.392364987        12.447258690
       165          165.000000         3.849229551       299.898619866     -1567.280215517     -1563.363873698        12.436273818
       166          166.000000         3.797041264       295.832560618     -1567.189266703     -1563.324557811        12.417106064
       167          167.000000         4.005910476       312.105840169     -1567.488543216     -1563.414391527        12.470994271
       168          168.000000         4.005570188       312.079327824     -1567.477604463     -1563.403165762        13.105272402
       169          169.000000         3.863522317       301.012188331     -1567.296138174     -1563.363091008        12.418639781
       170          170.000000         3.927109346       305.966338771     -1567.439479403     -1563.442174710        12.407727710
       171          171.000000         3.896789103       303.604048135     -1567.379703914     -1563.412019822        12.458577458
       172          172.000000         3.935441054       306.615473261     -1567.431950661     -1563.424889336        13.101413203
       173          173.000000         3.888667454       302.971279576     -1567.398554087     -1563.437512670        13.149199372
       174          174.000000         3.702862499       288.494967124     -1567.159681962     -1563.383695923        12.448842280
       175          175.000000         3.836998458       298.945679016     -1567.342842277     -1563.431982743        12.397050612
       176          176.000000         3.900769539       303.914169205     -1567.405735063     -1563.430337552        13.152881108
       177          177.000000         3.846547511       299.689658483     -1567.316023341     -1563.394058205        13.111571842
       178          178.000000         3.872170455       301.685976363     -1567.334040462     -1563.385649391        12.445397124
       179          179.000000         3.778623010       294.397569833     -1567.193783593     -1563.338127636        12.432929758
       180          180.000000         3.872999818       301.750593103     -1567.287720641     -1563.336869770        12.411475156
       181          181.000000         3.941281847       307.070537236     -1567.390275521     -1563.370287497        12.449910845
       182          182.000000         3.789519594       295.246537229     -1567.186363039     -1563.317262808        12.404286653
       183          183.000000         3.848892178       299.872334648     -1567.256352552     -1563.327006491        12.425287767
       184          184.000000         3.883818905       302.593522607     -1567.286857916     -1563.321685762        12.402969780
       185          185.000000         3.899541964       303.818527193     -1567.278885195     -1563.297061861        12.424788075
       186          186.000000         3.945598470       307.406851137     -1567.351196028     -1563.322352815        12.482221125
       187          187.000000         3.788901029       295.198344008     -1567.155285333     -1563.282158656        12.387944040
       188          188.000000         3.855179131       300.362159535     -1567.272087618     -1563.331702688        12.417154819
       189          189.000000         3.984728771       310.455545170     -1567.489086074     -1563.418125781        13.121779197
       190          190.000000         3.913698535       304.921484569     -1567.319411754     -1563.318407847        13.093774310
       191          191.000000         3.938622072       306.863310674     -1567.387352316     -1563.360323182        13.157172209
       192          192.000000         3.869435496       301.472892013     -1567.356738945     -1563.397766589        12.423729114
       193          193.000000         3.865339970       301.153804108     -1567.347185254     -1563.391164710        13.093473378
       194          194.000000         3.951975409       307.903686960     -1567.476025159     -1563.432188485        13.085883600
       195          195.000000         3.797833673       295.894298261     -1567.384812818     -1563.493913791        13.800096030
       196          196.000000         3.794197514       295.611000249     -1567.365977114     -1563.477522077        13.786217888
       197          197.000000         3.884939768       302.680850551     -1567.440913932     -1563.460500383        13.140515554
       198          198.000000         3.887197969       302.856790019     -1567.394762874     -1563.410836028        13.128475647
       199          199.000000         3.972399385       309.494946232     -1567.516503706     -1563.446076764        13.114842992
       200          200.000000         3.881256027       302.393845423     -1567.403085600     -1563.422464211        13.144216854
       201          201.000000         3.856171986       300.439514211     -1567.305074837     -1563.348191750        12.465218506
       202          202.000000         3.975080559       309.703840080     -1567.470055273     -1563.392876566        13.131559938
       203          203.000000         3.869789081       301.500440282     -1567.331324200     -1563.358007957        12.472458653
       204          204.000000         3.842106686       299.343667915     -1567.304090376     -1563.357025994        12.395557324
       205          205.000000         3.851876924       300.104880183     -1567.333032776     -1563.374752021        12.396840549
       206          206.000000         3.842937663       299.408410429     -1567.268832549     -1563.318025528        12.421672703
       207          207.000000         3.981840401       310.230508394     -1567.471933988     -1563.380712039        12.430449482
       208          208.000000         3.891065419       303.158108240     -1567.385461534     -1563.383452779        13.102383306
       209          209.000000         3.802779472       296.279632055     -1567.294597497     -1563.379321163        13.122698586
       210          210.000000         3.905041860       304.247031461     -1567.454149754     -1563.435040589        13.102973018
       211          211.000000         3.885666354       302.737459895     -1567.393343566     -1563.391996072        12.442140874
       212          212.000000         3.916298028       305.124014514     -1567.474530219     -1563.440908066        13.105647185
       213          213.000000         3.860723401       300.794121023     -1567.430590698     -1563.450876379        13.103113655
       214          214.000000         3.768012720       293.570907945     -1567.321986476     -1563.433329385        13.147726840
       215          215.000000         3.900023426       303.856038519     -1567.523422602     -1563.501086690        13.100767174
       216          216.000000         3.857415918       300.536430621     -1567.472688905     -1563.491250887        13.154754494
       217          217.000000         3.777341379       294.297716263     -1567.351618228     -1563.448555881        13.108982320
       218          218.000000         3.808878617       296.754824632     -1567.392618763     -1563.456327582        13.099893953
       219          219.000000         3.788232073       295.146224758     -1567.326560983     -1563.409217275        13.132582024
       220          220.000000         3.930479251       306.228892600     -1567.508190102     -1563.446867118        13.132188469
       221          221.000000         3.917766703       305.238440962     -1567.497127702     -1563.446730007        13.119851879
       222          222.000000         3.775197208       294.130661033     -1567.305073746     -1563.395470441        13.154514448
       223          223.000000         3.858695050       300.636089529     -1567.392510509     -1563.397644792        12.463376216
       224          224.000000         3.865166903       301.140320255     -1567.396622332     -1563.393487885        13.150152444
       225          225.000000         3.866921503       301.277023473     -1567.387943728     -1563.381241878        13.138970229
       226          226.000000         3.864853649       301.115914167     -1567.364341757     -1563.357881294        12.428193218
       227          227.000000         3.747588403       291.979622096     -1567.230795325     -1563.339792131        13.207011229