#     Step Nr.          Time[fs]        Kin.[a.u.]          Temp[K]            Pot.[a.u.]        Cons Qty[a.u.]        UsedTime[s]
         0            0.000000         3.844830508       300.000000000     -1262.606803181     -1258.761497650         0.000000000
         1            1.000000         3.892980183       303.756967261     -1262.674526728     -1258.780210227        45.265291698
         2            2.000000         3.818366799       297.935120194     -1262.570639023     -1258.750070934        12.788589839
         3            3.000000         3.834880099       299.223600962     -1262.582838139     -1258.744901238        12.844824145
         4            4.000000         3.961235212       309.082691935     -1262.751726891     -1258.786562527        12.847230120
         5            5.000000         3.855828885       300.858168630     -1262.633763360     -1258.773112889        12.230821950
         6            6.000000         3.891927076       303.674796695     -1262.651666599     -1258.754027534        12.913491016
         7            7.000000         3.953828851       308.504796951     -1262.725273208     -1258.764820367        12.815326529
         8            8.000000         3.915777270       305.535752090     -1262.657401045     -1258.734065278        12.826293170
         9            9.000000         3.980078089       310.552942224     -1262.770406875     -1258.781815378        12.856912460
        10           10.000000         3.858191500       301.042516077     -1262.667527721     -1258.799852136        12.859753406
        11           11.000000         3.838880096       299.535708091     -1262.643244903     -1258.793922249        12.885773780
        12           12.000000         3.991331186       311.430985901     -1262.821962233     -1258.819210247        12.841221467
        13           13.000000         3.934640222       307.007568779     -1262.726078646     -1258.779002794        12.934218323
        14           14.000000         3.952255981       308.382070872     -1262.765525322     -1258.799803605        12.825516567
        15           15.000000         3.916006544       305.553641589     -1262.732229679     -1258.801709301        12.229083572
        16           16.000000         3.851232225       300.499505782     -1262.635253835     -1258.768459664        12.825270023
        17           17.000000         3.974838524       310.144115489     -1262.808788099     -1258.817325658        12.157955619
        18           18.000000         3.859711197       301.161093243     -1262.649756632     -1258.772338397        12.904866081
        19           19.000000         3.776782693       294.690443570     -1262.555108643     -1258.759559709        12.847146714
        20           20.000000         3.874819363       302.339935770     -1262.689784535     -1258.795147116        12.838572197
        21           21.000000         3.861981782       301.338259814     -1262.641206135     -1258.758339988        12.870469496
        22           22.000000         3.956904180       308.744755185     -1262.776867458     -1258.797995566        12.859096309
        23           23.000000         3.903330613       304.564578713     -1262.741465155     -1258.815059318        12.823202169
        24           24.000000         3.778248035       294.804779566     -1262.548355454     -1258.745940599        13.218940543
        25           25.000000         3.920103976       305.873351350     -1262.725896928     -1258.780539551        12.920460852
        26           26.000000         3.903120592       304.548191436     -1262.691251292     -1258.761762657        12.851713903
        27           27.000000         3.871804783       302.104717582     -1262.651972909     -1258.752681807        12.795595096
        28           28.000000         3.907514967       304.891070616     -1262.713985857     -1258.777859484        12.156145660
        29           29.000000         3.843825698       299.921597787     -1262.596354477     -1258.722787300        12.803625008
        30           30.000000         3.987985997       311.169971331     -1262.780581463     -1258.761708198        12.822000960
        31           31.000000         3.993097309       311.568790868     -1262.786989663     -1258.761812715        12.176789818
        32           32.000000         3.843855851       299.923950565     -1262.596914217     -1258.719783085        12.160852792
        33           33.000000         3.909234201       305.025217081     -1262.693905484     -1258.750209389        12.793539869
        34           34.000000         3.898842088       304.214353232     -1262.651227343     -1258.716718845        12.153678617
        35           35.000000         3.956207838       308.690421786     -1262.687108921     -1258.694011909        12.862797176
        36           36.000000         3.997825333       311.937703738     -1262.756680224     -1258.720706873        12.879971486
        37           37.000000         3.839901803       299.615428643     -1262.575399547     -1258.696085402        12.766684340
        38           38.000000         3.920793618       305.927161922     -1262.693102359     -1258.731641650        12.215896139
        39           39.000000         3.949968543       308.203589301     -1262.744233542     -1258.752313590        12.157184506
        40           40.000000         3.841732145       299.758244518     -1262.565332152     -1258.680362016        12.820391573
        41           41.000000         3.877300966       302.533567391     -1262.665860441     -1258.744046659        12.803846076
        42           42.000000         3.789063089       295.648644126     -1262.568833248     -1258.733990731        12.808256874
        43           43.000000         3.855878892       300.862070515     -1262.646969087     -1258.744058021        12.788817137
        44           44.000000         3.965893885       309.446193552     -1262.813997054     -1258.799789151        12.760777550
        45           45.000000         3.811651024       297.411109453     -1262.587031460     -1258.725777532        12.822817350
        46           46.000000         3.836641564       299.361042466     -1262.658545245     -1258.771039008        12.872610761
        47           47.000000         3.840931467       299.695770082     -1262.668335792     -1258.775278936        12.789050246
        48           48.000000         3.794041716       296.037110676     -1262.662639562     -1258.815224632        12.811009752
        49           49.000000         3.859203343       301.121466989     -1262.771842907     -1258.858026900        13.488262787
        50           50.000000         3.733131557       291.284483071     -1262.603511991     -1258.814544106        12.772584485
        51           51.000000         3.780702620       294.996303078     -1262.604264285     -1258.766536174        12.786790935
        52           52.000000         3.936839101       307.179140340     -1262.800160287     -1258.805088770        12.800523082
        53           53.000000         3.865851115       301.640171678     -1262.686209382     -1258.760897253        12.831690032
        54           54.000000         3.896324449       304.017909785     -1262.746753039     -1258.789743226        12.779870480
        55           55.000000         3.846925475       300.163463678     -1262.698363532     -1258.789527808        12.200185178
        56           56.000000         3.820873295       298.130694162     -1262.652183312     -1258.768190754        12.796322690
        57           57.000000         3.959956133       308.982889430     -1262.845083591     -1258.820787153        12.895504363
        58           58.000000         3.845898828       300.083357592     -1262.663697415     -1258.752221730        12.849331727
        59           59.000000         3.823575466       298.341536083     -1262.643195835     -1258.752831442        12.775385804
        60           60.000000         3.920599087       305.911983292     -1262.759469903     -1258.770864880        12.216086142
        61           61.000000         3.882734497       302.957528707     -1262.658727440     -1258.706754535        12.126101309
        62           62.000000         3.961949774       309.138446962     -1262.779525738     -1258.747093803        12.165420514
        63           63.000000         3.866725101       301.708366036     -1262.717833336     -1258.779371699        12.836342229
        64           64.000000         3.769762795       294.142703059     -1262.593205746     -1258.750484719        12.863160906
        65           65.000000         3.915322917       305.500300331     -1262.826072058     -1258.836576854        12.804417953
        66           66.000000         3.847389868       300.199698764     -1262.725346879     -1258.802556127        12.844768861
        67           67.000000         3.816738000       297.808030200     -1262.677396555     -1258.784049905        12.849079078
        68           68.000000         3.821511712       298.180507893     -1262.644056311     -1258.744743741        12.821758214
        69           69.000000         3.726815185       290.791636515     -1262.498549486     -1258.692769001        13.448132841
        70           70.000000         3.858342660       301.054310622     -1262.707910589     -1258.769457187        12.785345009
        71           71.000000         3.808350687       297.153594597     -1262.656347279     -1258.766736793        12.191685280
        72           72.000000         3.677367313       286.933374942     -1262.503626463     -1258.743893257        12.888891466
        73           73.000000         3.775434333       294.585235315     -1262.655449056     -1258.796581524        12.823267512
        74           74.000000         3.738029437       291.666649219     -1262.545663366     -1258.723148267        12.836453961
        75           75.000000         3.787768994       295.547669990     -1262.606578511     -1258.733295253        12.851189828
        76           76.000000         3.804553377       296.857302491     -1262.682388106     -1258.791301583        12.899505872
        77           77.000000         3.668444371       286.237145950     -1262.494947649     -1258.738985306        12.860137969
        78           78.000000         3.793556368       295.999240547     -1262.666512702     -1258.784489648        12.847317938
        79           79.000000         3.808396921       297.157202084     -1262.674214188     -1258.776403353        12.205038343
        80           80.000000         3.742234641       291.994767980     -1262.582015333     -1258.749441484        12.231713038
        81           81.000000         3.812675644       297.491057323     -1262.752875123     -1258.848957722        12.827476066
        82           82.000000         3.746998890       292.366507360     -1262.624963299     -1258.785835415        12.846301273
        83           83.000000         3.844525247       299.976181410     -1262.754208152     -1258.816684567        12.877337508
        84           84.000000         3.911054064       305.167215246     -1262.829071923     -1258.824138501        12.825705556
        85           85.000000         3.767605638       293.974386867     -1262.632896822     -1258.770537833        12.865502674
        86           86.000000         3.847482762       300.206947025     -1262.767207592     -1258.824120805        12.235585494
        87           87.000000         3.847695754       300.223566107     -1262.757235756     -1258.813084048        12.891620098
        88           88.000000         3.821359446       298.168627004     -1262.711520395     -1258.792862286        12.233147094
        89           89.000000         3.898033156       304.151234828     -1262.838282332     -1258.842110683        12.871744033
        90           90.000000         3.768585955       294.050877964     -1262.530713911     -1258.663156103        12.904416058
        91           91.000000         3.842263187       299.799680004     -1262.637881312     -1258.695835285        12.890386676
        92           92.000000         3.956663455       308.725972157     -1262.917939011     -1258.860667392        12.910239378
        93           93.000000         3.865149929       301.585460289     -1262.731733878     -1258.765136922        13.546682771
        94           94.000000         3.936368243       307.142400777     -1262.841477089     -1258.802823284        13.560304170
        95           95.000000         3.890577567       303.569498696     -1262.775609876     -1258.781896387        13.555325467
        96           96.000000         3.884757564       303.115382228     -1262.781426245     -1258.792684334        13.567676866
        97           97.000000         4.008266146       312.752367444     -1262.943140809     -1258.830024243        13.519400576
        98           98.000000         3.869627089       301.934799032     -1262.752453050     -1258.777091381        14.196048483
        99           99.000000         3.884498299       303.095152583     -1262.740942175     -1258.749837055        13.608439453
       100          100.000000         3.954107501       308.526539134     -1262.771663905     -1258.710065425        13.553685021
       101          101.000000         3.897734475       304.127929694     -1262.662770528     -1258.656647580        12.928429248
       102          102.000000         3.996251885       311.814932534     -1262.804757649     -1258.699207482        12.919419916
       103          103.000000         3.902147409       304.472256989     -1262.682277664     -1258.669903161        12.870102635
       104          104.000000         3.846007555       300.091841234     -1262.589523667     -1258.632372937        12.915524380
       105          105.000000         3.965972102       309.452296540     -1262.835592494     -1258.757556602        13.543070652
       106          106.000000         3.859484143       301.143376933     -1262.747189671     -1258.774708548        13.594581086
       107          107.000000         3.866226641       301.669472773     -1262.770716857     -1258.790574023        12.904470341
       108          108.000000         3.878497127       302.626900107     -1262.808003375     -1258.814672082        12.857184576
       109          109.000000         3.808133478       297.136646419     -1262.693838250     -1258.769962781        12.898368394
       110          110.000000         3.943037540       307.662784979     -1262.879383976     -1258.819699268        12.918025319
       111          111.000000         3.870095530       301.971350003     -1262.782356528     -1258.794694889        12.876084838
       112          112.000000         3.783769850       295.235629353     -1262.675814071     -1258.773581249        12.242185187
       113          113.000000         3.874164481       302.288837349     -1262.795570470     -1258.802061570        12.881092703
       114          114.000000         3.814135382       297.604956063     -1262.678616644     -1258.744257816        12.902452832
       115          115.000000         3.891686713       303.656041866     -1262.780782498     -1258.768002126        12.891385207
       116          116.000000         3.903615060       304.586773195     -1262.803429536     -1258.777840835        12.902569065
       117          117.000000         3.792920086       295.949593444     -1262.648749646     -1258.732986534        12.914935341
       118          118.000000         3.919540926       305.829418296     -1262.807905405     -1258.764662972        12.870304639
       119          119.000000         3.878677304       302.640958717     -1262.682060904     -1258.678811437        12.912589246
       120          120.000000         3.832601249       299.045789455     -1262.620603255     -1258.662570517        12.948812090
       121          121.000000         3.904420571       304.649624717     -1262.733256633     -1258.702550225        12.879379867
       122          122.000000         3.803658445       296.787473713     -1262.617270707     -1258.686475958        12.867923042
       123          123.000000         3.902307592       304.484755576     -1262.748041866     -1258.717759369        12.851763386
       124          124.000000         3.947484291       308.009750914     -1262.819509281     -1258.743193929        12.911672184
       125          125.000000         3.828760912       298.746140040     -1262.658088816     -1258.699640655        12.923348667
       126          126.000000         3.906140175       304.783799919     -1262.767238104     -1258.730565936        12.913811760
       127          127.000000         3.845907431       300.084028858     -1262.683838035     -1258.706551716        12.903915478
       128          128.000000         3.827636861       298.658433885     -1262.638298007     -1258.678451260        12.875122629
       129          129.000000         3.903162623       304.551470972     -1262.750682232     -1258.714482252        12.938835844
       130          130.000000         3.791612656       295.847578777     -1262.592198032     -1258.666725960        12.870691920
       131          131.000000         3.869359123       301.913890423     -1262.724990260     -1258.720967750        12.879824273
       132          132.000000         3.910863655       305.152358196     -1262.780001816     -1258.733662821        12.977286160
       133          133.000000         3.820926239       298.134825264     -1262.634840054     -1258.677630209        12.927852549
       134          134.000000         3.900996453       304.382451543     -1262.763919308     -1258.725841194        12.875702428
       135          135.000000         3.813638209       297.566163233     -1262.599443210     -1258.647927555        12.935615918
       136          136.000000         3.785089015       295.338559651     -1262.637800436     -1258.714063333        12.888992151
       137          137.000000         3.879280852       302.688051672     -1262.758974486     -1258.740285568        13.572952222
       138          138.000000         3.784347269       295.280683542     -1262.604742996     -1258.680233886        12.948927142
       139          139.000000         3.865390618       301.604240492     -1262.721979874     -1258.715690994        12.913296364
       140          140.000000         3.894615776       303.884587450     -1262.790614049     -1258.754358401        12.907130275
       141          141.000000         3.793943986       296.029485144     -1262.632580607     -1258.696263482        12.921889439
       142          142.000000         3.873733180       302.255184330     -1262.802246539     -1258.785422832        12.922462853
       143          143.000000         3.783079145       295.181735848     -1262.639784454     -1258.712904938        12.902597064
       144          144.000000         3.759216277       293.319791481     -1262.552869764     -1258.649172270        12.911472606
       145          145.000000         3.853125123       300.647202655     -1262.667047159     -1258.668775503        12.925207604
       146          146.000000         3.743118376       292.063723033     -1262.570008183     -1258.681090249        12.958365001
       147          147.000000         3.800736159       296.559456956     -1262.658887596     -1258.711726684        12.959203476
       148          148.000000         3.813628266       297.565387402     -1262.680118384     -1258.719451362        12.939617161
       149          149.000000         3.734594415       291.398625301     -1262.572448297     -1258.690221796        12.271139879
       150          150.000000         3.834917342       299.226506870     -1262.750820060     -1258.767699861        12.290821247
       151          151.000000         3.757870452       293.214781000     -1262.652260417     -1258.745627464        12.289474938
       152          152.000000         3.768690473       294.059033183     -1262.702154706     -1258.784168309        12.292438919
       153          153.000000         3.892411535       303.712597480     -1262.890173689     -1258.847941951        12.967728917
       154          154.000000         3.820463506       298.098719653     -1262.773812088     -1258.803002111        12.967218162
       155          155.000000         3.894759738       303.895820367     -1262.879458088     -1258.833832896        12.287886079
       156          156.000000         3.892599195       303.727239957     -1262.863624084     -1258.819633651        12.318561742
       157          157.000000         3.817296661       297.851620745     -1262.715069669     -1258.745859687        12.301363889
       158          158.000000         3.931271175       306.744692636     -1262.878422795     -1258.794720613        12.256473659
       159          159.000000         3.856059128       300.876133755     -1262.773782552     -1258.764765700        12.282702040
       160          160.000000         3.838739428       299.524732206     -1262.702563855     -1258.710348777        12.331746712
       161          161.000000         3.924431582       306.211020752     -1262.830683113     -1258.752258232        12.946177326
       162          162.000000         3.844273216       299.956516262     -1262.709790782     -1258.711000640        12.983927026
       163          163.000000         3.920846840       305.931314637     -1262.789390360     -1258.713505663        12.975809388
       164          164.000000         3.887656132       303.341548357     -1262.757954578     -1258.714730478        12.982716244
       165          165.000000         3.750582500       292.646125144     -1262.628246108     -1258.721577406        12.984596010
       166          166.000000         3.817056483       297.832880395     -1262.743929055     -1258.770292683        12.964915136
       167          167.000000         3.733115726       291.283247801     -1262.630157719     -1258.739984514        13.028039087
       168          168.000000         3.723459856       290.529830766     -1262.619940394     -1258.738976901        12.963103466
       169          169.000000         3.792002849       295.878024314     -1262.721316545     -1258.771387567        13.636176014
       170          170.000000         3.696324668       288.412557560     -1262.626335084     -1258.771682504        12.949140467
       171          171.000000         3.793591506       296.001982247     -1262.759474386     -1258.807182219        13.646385046
       172          172.000000         3.802488221       296.696164818     -1262.769149649     -1258.807599474        13.607945271
       173          173.000000         3.714065681       289.796832929     -1262.647265527     -1258.773795258        12.926546765
       174          174.000000         3.796723685       296.246376249     -1262.790770191     -1258.834325065        12.976033902
       175          175.000000         3.733439548       291.308514626     -1262.693749662     -1258.800287675        12.960565303
       176          176.000000         3.780360873       294.969637663     -1262.766630291     -1258.825969317        12.982401747
       177          177.000000         3.881665951       302.874153470     -1262.897596224     -1258.855361861        12.983589401
       178          178.000000         3.791605588       295.847027310     -1262.755248361     -1258.802806319        12.950742150
       179          179.000000         3.874305741       302.299859428     -1262.872310206     -1258.836909766        12.968178699
       180          180.000000         3.877854170       302.576732180     -1262.874954667     -1258.835743858        12.298156125
       181          181.000000         3.806744045       297.028233347     -1262.774257555     -1258.805895645        12.278993271
       182          182.000000         3.881115622       302.831212968     -1262.901785607     -1258.858797909        12.306185547
       183          183.000000         3.790185471       295.736220034     -1262.714179592     -1258.761868322        12.268850688
       184          184.000000         3.810755177       297.341209353     -1262.790795764     -1258.817674447        12.937098540
       185          185.000000         3.907257311       304.870966522     -1262.922783017     -1258.852923345        12.949313544
       186          186.000000         3.820651397       298.113380156     -1262.794792300     -1258.811296960        13.008211948
       187          187.000000         3.868029194       301.810120299     -1262.876775741     -1258.845666613        12.962253839
       188          188.000000         3.832037651       299.001813701     -1262.832476014     -1258.837122367        12.976451209
       189          189.000000         3.772068503       294.322610170     -1262.746912323     -1258.811300583        12.967344090
       190          190.000000         3.879880648       302.734851895     -1262.888202789     -1258.844563247        13.020572094
       191          191.000000         3.802558482       296.701647112     -1262.791959201     -1258.825425488        12.973502681
       192          192.000000         3.820099670       298.070330698     -1262.781888472     -1258.797607484        12.998049174
       193          193.000000         3.904303706       304.640506071     -1262.894661676     -1258.825973547        12.983199328
       194          194.000000         3.830019181       298.844318807     -1262.789262361     -1258.794649875        12.328152321
       195          195.000000         3.907503299       304.890160189     -1262.908687555     -1258.836383606        12.328082584
       196          196.000000         3.864273590       301.517082340     -1262.856590660     -1258.827301062        12.319160672
       197          197.000000         3.788379719       295.595322906     -1262.766527408     -1258.812919066        12.333411207
       198          198.000000         3.906150227       304.784584297     -1262.930128398     -1258.858544711        12.990714535
       199          199.000000         3.860479891       301.221072002     -1262.838445751     -1258.812319846        12.332489250
       200          200.000000         3.895729640       303.971498754     -1262.884002050     -1258.822411428        12.301230414
       201          201.000000         3.949470649       308.164740189     -1262.930083519     -1258.814526166        13.059757328
       202          202.000000         3.850262057       300.423806642     -1262.783979871     -1258.767392108        13.079645297
       203          203.000000         3.924191439       306.192283196     -1262.893959854     -1258.803201763        12.307421140
       204          204.000000         3.890403334       303.555903901     -1262.822483612     -1258.765260941        12.325706244
       205          205.000000         3.823130252       298.306797456     -1262.716568225     -1258.726363839        12.364615155
       206          206.000000         3.915857440       305.542007475     -1262.850640852     -1258.767456915        12.334301263
       207          207.000000         3.866033056       301.654367937     -1262.784893255     -1258.751272156        12.325132109
       208          208.000000         3.920847913       305.931398397     -1262.845444287     -1258.756742686        13.061702011
       209          209.000000         3.982179682       310.716922909     -1262.926913149     -1258.776597512        12.995238708
       210          210.000000         3.879422213       302.699081668     -1262.772434344     -1258.724574918        12.307698254
       211          211.000000         3.935828923       307.100319351     -1262.863117732     -1258.758544446        12.378262594
       212          212.000000         3.897372251       304.099666495     -1262.813910158     -1258.747473171        13.091517746
       213          213.000000         3.838723755       299.523509321     -1262.732095817     -1258.723984493        13.043327866
       214          214.000000         3.927666295       306.463415179     -1262.848986125     -1258.751609323        13.035735013
       215          215.000000         3.860071916       301.189239018     -1262.734097891     -1258.703982562        12.374430504
       216          216.000000         3.896235478       304.010967670     -1262.814834549     -1258.748222144        13.105337486
       217          217.000000         3.940342985       307.452537359     -1262.886751746     -1258.775687998        13.038152926
       218          218.000000         3.827858957       298.675763350     -1262.730358007     -1258.731426036        13.052345060
       219          219.000000         3.883867847       303.045960404     -1262.820690096     -1258.765402615        12.394449713
       220          220.000000         3.843442554       299.891702282     -1262.798602664     -1258.783391617        13.040768947
       221          221.000000         3.801707956       296.635283264     -1262.737891101     -1258.764073628        13.054745102
       222          222.000000         3.897112602       304.079406918     -1262.904180272     -1258.834623719        12.371495344
       223          223.000000         3.820084296       298.069131111     -1262.788822053     -1258.795956120        12.356603691
       224          224.000000         3.854332890       300.741440847     -1262.840193210     -1258.812748722        13.004614146
       225          225.000000         3.884419235       303.088983480     -1262.912875949     -1258.855014224        13.049649952
       226          226.000000         3.774705283       294.528349784     -1262.761625368     -1258.813149289        13.043644000
       227          227.000000         3.842989208       299.856329115     -1262.866021582     -1258.848948088        12.348611265