#     Step Nr.          Time[fs]        Kin.[a.u.]          Temp[K]            Pot.[a.u.]        Cons Qty[a.u.]        UsedTime[s]
         0            0.000000         3.843405441       300.000000000      -992.840262742      -988.996382278         0.000000000
         1            1.000000         4.209408362       328.568642508      -993.366379471      -989.155590804        41.799450019
         2            2.000000         3.919867341       305.968293008      -992.991597880      -989.069377077        10.758257769
         3            3.000000         3.729526923       291.111123733      -992.701443330      -988.968629092        10.727865105
         4            4.000000         4.287737571       334.682689845      -993.490659327      -989.198659304        10.781580912
         5            5.000000         3.806944953       297.154048198      -992.818901387      -989.006644449        10.752248015
         6            6.000000         3.843606591       300.015700924      -992.914420648      -989.064503933        10.777501633
         7            7.000000         4.011147259       313.093217960      -993.176414855      -989.157929281        10.764451459
         8            8.000000         3.663090096       285.925345524      -992.651338112      -988.979884701        10.794392979
         9            9.000000         4.156040165       324.402946445      -993.357754842      -989.192322259        10.797755584
        10           10.000000         3.829944201       298.949272431      -992.951465633      -989.111035006        10.824448051
        11           11.000000         3.513955178       274.284503547      -992.506514246      -988.981068528        10.808386117
        12           12.000000         4.026495168       314.291210944      -993.236974137      -989.198002658        11.358511666
        13           13.000000         3.681604085       287.370469335      -992.717936587      -989.022833389        10.818826498
        14           14.000000         3.844517758       300.086822737      -992.962365458      -989.103369623        10.780553855
        15           15.000000         3.905769856       304.867902863      -993.079975914      -989.158722511        10.812308218
        16           16.000000         3.475461000       271.279810546      -992.439623469      -988.947721170        10.849013878
        17           17.000000         4.075948354       318.151317875      -993.265569969      -989.172248630        10.810957586
        18           18.000000         3.896123964       304.114985292      -993.001587832      -989.087079682        10.793973764
        19           19.000000         3.604595533       281.359506958      -992.614462795      -988.990524288        10.800879614
        20           20.000000         3.985296731       311.075434913      -993.181821594      -989.176243122        10.292963609
        21           21.000000         3.636706713       283.865970062      -992.624866981      -988.966926093        10.814146094
        22           22.000000         3.984016547       310.975509195      -993.081567941      -989.075389429        10.859793451
        23           23.000000         4.088179520       319.106031058      -993.225217193      -989.113870232        10.892950350
        24           24.000000         3.549918248       277.091628943      -992.468715350      -988.894646261        10.833993308
        25           25.000000         4.056533414       316.635869586      -993.186685240      -989.105054812        10.309152789
        26           26.000000         3.926845459       306.512975473      -992.972643938      -989.019681373        10.823730437
        27           27.000000         3.773451494       294.539690266      -992.768791005      -988.968223018        10.854276529
        28           28.000000         4.062602358       317.109585730      -993.259819785      -989.169087594        10.304860892
        29           29.000000         3.552876246       277.322517804      -992.524585947      -988.942572257        10.859851858
        30           30.000000         3.924252769       306.310600997      -993.047221133      -989.092877967        10.819180053
        31           31.000000         4.106618494       320.545299473      -993.330066349      -989.192322439        10.798230471
        32           32.000000         3.577441314       279.239963284      -992.623022223      -989.013431482        10.838080442
        33           33.000000         3.944637959       307.901782874      -993.187286137      -989.209527674        10.813739704
        34           34.000000         3.735999677       291.616359586      -992.867313900      -989.097197146        10.832114086
        35           35.000000         3.724819566       290.743687274      -992.835687496      -989.075799912        10.849061564
        36           36.000000         4.093347650       319.509433409      -993.380208878      -989.250812157        10.834280722
        37           37.000000         3.487537411       272.222444204      -992.549219987      -989.024657984        10.870464744
        38           38.000000         3.759773435       293.472038725      -992.951606904      -989.153924392        10.818626603
        39           39.000000         3.980757179       310.721096669      -993.238640889      -989.219048765        10.837452220
        40           40.000000         3.603932922       281.307786285      -992.695391790      -989.051705367        10.851595888
        41           41.000000         3.958675202       308.997470791      -993.266718760      -989.267404730        10.825109962
        42           42.000000         3.602595278       281.203375450      -992.770890872      -989.126767224        10.842574915
        43           43.000000         3.618614721       282.453785523      -992.764513937      -989.103559074        10.807186961
        44           44.000000         4.115152837       321.211454276      -993.459160198      -989.300831988        10.825777957
        45           45.000000         3.574816333       279.035068277      -992.700209989      -989.081360497        10.883819997
        46           46.000000         3.767726219       294.092799417      -993.014653259      -989.202109939        10.847186824
        47           47.000000         3.879467572       302.814857620      -993.159836368      -989.234753143        10.916905254
        48           48.000000         3.615978383       282.248004168      -992.739959073      -989.077585276        10.299690969
        49           49.000000         4.099085363       319.957295072      -993.439326424      -989.293071125        10.271144353
        50           50.000000         3.671032120       286.545266399      -992.846730390      -989.127720775        10.312160088
        51           51.000000         3.586507676       279.947645145      -992.719289639      -989.084075363        10.877575854
        52           52.000000         4.095205495       319.654448978      -993.392236301      -989.247590108        10.873733247
        53           53.000000         3.692456019       288.217525498      -992.771244814      -989.028576982        10.853260897
        54           54.000000         3.921378280       306.086230557      -993.119281171      -989.146952302        10.850258598
        55           55.000000         3.874868886       302.455903670      -993.059279049      -989.132695142        10.831360366
        56           56.000000         3.576185131       279.141910918      -992.590395643      -988.961765547        10.310986927
        57           57.000000         4.165688540       325.156057853      -993.385563792      -989.166704343        10.281169318
        58           58.000000         3.796731086       296.356796909      -992.861889790      -989.011200532        10.843971752
        59           59.000000         3.634354547       283.682369895      -992.664088087      -988.975045078        10.847786535
        60           60.000000         3.987325180       311.233767120      -993.174135745      -989.131402819        10.907806281
        61           61.000000         3.640029506       284.125333249      -992.618755366      -988.922587753        10.853988780
        62           62.000000         4.003615522       312.505322412      -993.120380870      -989.059919014        10.341166450
        63           63.000000         3.879492731       302.816821429      -993.015490727      -989.078401696        10.887933044
        64           64.000000         3.428768821       267.635216220      -992.402603431      -988.915544034        10.853771843
        65           65.000000         3.984419854       311.006989618      -993.183926288      -989.140569095        10.917596366
        66           66.000000         3.744414788       292.273207588      -992.810019734      -989.005985123        10.349463185
        67           67.000000         3.670784914       286.525970486      -992.748984712      -989.017940808        10.849282255
        68           68.000000         3.880298227       302.879695040      -993.046608130      -989.105427749        10.897977639
        69           69.000000         3.425461267       267.377042553      -992.385847704      -988.898910011        11.436255550
        70           70.000000         3.909458980       305.155860303      -993.057357545      -989.085884479        10.872010138
        71           71.000000         3.918186484       305.837092427      -993.099144686      -989.118368838        10.920932630
        72           72.000000         3.453554616       269.569890698      -992.448758961      -988.932070151        10.872107361
        73           73.000000         3.863861968       301.596750113      -993.079567676      -989.152085433        10.897231245
        74           74.000000         3.617897755       282.397822218      -992.690946860      -989.008943460        10.894263038
        75           75.000000         3.742966616       292.160169422      -992.849718009      -989.042203092        10.287871828
        76           76.000000         3.994274022       311.776164389      -993.237707950      -989.178437432        10.907862358
        77           77.000000         3.418217854       266.811652247      -992.433731770      -988.950078603        10.296595750
        78           78.000000         3.822131680       298.339460053      -993.016374973      -989.128437618        10.328884039
        79           79.000000         3.904359002       304.757777543      -993.104967856      -989.134419788        10.290933354
        80           80.000000         3.595938722       280.683792814      -992.652882915      -988.990380499        10.317059038
        81           81.000000         3.953232810       308.572660623      -993.179034558      -989.158893648        10.858137093
        82           82.000000         3.574334272       278.997440689      -992.627821787      -988.986232174        10.941466924
        83           83.000000         3.755673152       293.151987920      -992.857043971      -989.033815705        10.306207383
        84           84.000000         4.119859551       321.578840461      -993.380348665      -989.192624726        10.886635080
        85           85.000000         3.566865054       278.414425073      -992.601295991      -988.966232485        10.830068151
        86           86.000000         3.860313333       301.319758656      -993.055213639      -989.126412222        10.883417625
        87           87.000000         3.854052240       300.831044107      -993.023155201      -989.100317805        10.856167397
        88           88.000000         3.661507116       285.801784761      -992.713806961      -988.983227502        10.884449733
        89           89.000000         4.081352399       318.573134759      -993.345648113      -989.194948593        10.846305516
        90           90.000000         3.591940768       280.371729406      -992.680674624      -989.019089485        11.410273785
        91           91.000000         3.680936318       287.318346261      -992.830290124      -989.079461536        11.422014961
        92           92.000000         4.065531360       317.338211250      -993.355932661      -989.220269876        11.442945400
        93           93.000000         3.624527165       282.915285994      -992.698830365      -989.003910413        10.951188896
        94           94.000000         3.886983473       303.401517158      -993.123811429      -989.166205352        10.891410902
        95           95.000000         3.726336903       290.862124216      -992.903592974      -989.106401926        10.879226947
        96           96.000000         3.545939527       276.781066792      -992.628009310      -989.011016616        10.889259597
        97           97.000000         4.074839166       318.064739301      -993.359243367      -989.213183988        10.835035289
        98           98.000000         3.616303520       282.273382961      -992.716455673      -989.028741375        10.857831741
        99           99.000000         3.626241356       283.049088432      -992.771080763      -989.073280683        10.858418658
       100          100.000000         3.911662123       305.327828377      -993.164250319      -989.180911222        10.833029600
       101          101.000000         3.566168076       278.360021878      -992.615318103      -988.977357234        10.366583759
       102          102.000000         3.960080733       309.107180582      -993.166069241      -989.134115585        10.838173650
       103          103.000000         3.731715813       291.281979225      -992.860972578      -989.057293789        10.892135344
       104          104.000000         3.460616902       270.121142930      -992.484174128      -988.951531340        10.856456630
       105          105.000000         3.994227845       311.772559992      -993.214621282      -989.148357855        10.876571110
       106          106.000000         3.643948581       284.431239717      -992.696756174      -988.980753562        10.830446560
       107          107.000000         3.691234742       288.122197753      -992.796006206      -989.032728392        10.851980986
       108          108.000000         3.837092516       299.507239739      -993.021525075      -989.112428218        10.836275900
       109          109.000000         3.454518226       269.645106040      -992.447690032      -988.921218261        10.858809887
       110          110.000000         3.936769922       307.287637139      -993.112665371      -989.104048595        10.822422644
       111          111.000000         3.752459225       292.901122380      -992.858779878      -989.034582635        10.849277757
       112          112.000000         3.430748416       267.789735068      -992.428338703      -988.925973964        10.876542851
       113          113.000000         3.858519202       301.179716364      -993.043271723      -989.113321805        11.374893703
       114          114.000000         3.541525057       276.436491901      -992.553082837      -988.940330311        11.448140865
       115          115.000000         3.703195419       289.055797687      -992.779488160      -989.005311205        10.859522715
       116          116.000000         3.813481220       297.664241636      -992.952629090      -989.068451008        11.365452714
       117          117.000000         3.357229148       262.051131379      -992.300221238      -988.872585822        11.368227482
       118          118.000000         3.864791874       301.669334597      -992.994410708      -989.059576849        11.417043919
       119          119.000000         3.784002239       295.363236817      -992.846423396      -988.992776128        11.370644700
       120          120.000000         3.536776765       276.065860230      -992.504570042      -988.898544795        11.396945417
       121          121.000000         3.870133165       302.086253252      -993.016030574      -989.077097740        11.404592853
       122          122.000000         3.512824492       274.196246940      -992.480288880      -988.899124861        10.858307345
       123          123.000000         3.798944830       296.529592396      -992.866758991      -988.999980886        10.833388986
       124          124.000000         3.971723587       310.015972620      -993.128314132      -989.089309313        10.854252037
       125          125.000000         3.455457623       269.718431429      -992.413244857      -988.891027565        10.846223127
       126          126.000000         3.847349672       300.307869965      -992.989297216      -989.075756522        10.853727259
       127          127.000000         3.781219689       295.146042742      -992.863464818      -989.016661186        10.318789706
       128          128.000000         3.673694429       286.753074980      -992.688260255      -988.949591242        10.851919845
       129          129.000000         3.978279439       310.527694775      -993.164625124      -989.122023653        10.828367922
       130          130.000000         3.470213761       270.870233249      -992.463551115      -988.929646961        10.341401897
       131          131.000000         3.710995219       289.664617165      -992.817839669      -989.043819626        10.835372878
       132          132.000000         3.955006351       308.711095740      -993.146173701      -989.128883041        10.831888217
       133          133.000000         3.532566080       275.737191972      -992.551140702      -988.957011813        10.894890415
       134          134.000000         3.837347363       299.527131997      -993.029509148      -989.131356244        10.868803903
       135          135.000000         3.628752284       283.245080933      -992.732810206      -989.044037205        10.822484313
       136          136.000000         3.588658834       280.115555499      -992.647382893      -988.999503129        10.828760942
       137          137.000000         4.003315723       312.481921359      -993.253394250      -989.191743499        10.879919115
       138          138.000000         3.506491558       273.701924870      -992.556860089      -988.992905614        10.863496572
       139          139.000000         3.658277715       285.549711385      -992.786425207      -989.071570247        10.827978222
       140          140.000000         3.868280534       301.941644664      -993.062595701      -989.138708956        10.857043393
       141          141.000000         3.590066310       280.225417109      -992.630202031      -988.985504443        10.884856693
       142          142.000000         3.964521820       309.453833104      -993.196204201      -989.178079277        10.855978359
       143          143.000000         3.672444210       286.655488188      -992.784919972      -989.059910810        10.883866018
       144          144.000000         3.591241199       280.317124010      -992.652397473      -989.009612452        10.875862719
       145          145.000000         4.056992970       316.671740604      -993.283205442      -989.175787796        10.870364197
       146          146.000000         3.656164312       285.384748076      -992.695297554      -988.989823107        10.913443744
       147          147.000000         3.791258558       295.929634500      -992.917300421      -989.077838404        10.324601563
       148          148.000000         3.861291124       301.396080864      -993.016914959      -989.108576858        10.872701867
       149          149.000000         3.593959858       280.529331032      -992.596578757      -988.956710339        10.932181675
       150          150.000000         4.054904758       316.508743571      -993.251351122      -989.151745458        10.312735287
       151          151.000000         3.748714441       292.608820381      -992.826804999      -989.034606064        10.905666171
       152          152.000000         3.585147943       279.841510196      -992.612752165      -988.985284741        10.894217055
       153          153.000000         3.976592159       310.395992772      -993.164063245      -989.146398371        10.913311040
       154          154.000000         3.664193047       286.011437183      -992.688440389      -988.984433131        10.322517147
       155          155.000000         3.884328648       303.194292699      -993.018266280      -989.095397157        10.928412002
       156          156.000000         3.869365040       302.026296625      -993.021387791      -989.114796472        10.904931307
       157          157.000000         3.526220532       275.241885308      -992.531644259      -988.969461341        10.890435673
       158          158.000000         4.019035490       313.708939982      -993.206471876      -989.152814226        10.906012038
       159          159.000000         3.819227997       298.112810768      -992.905078262      -989.052610487        10.901096784
       160          160.000000         3.678582051       287.134582101      -992.730198309      -989.019710029        10.927707663
       161          161.000000         3.936532506       307.269105419      -993.128145251      -989.161092258        10.927753413
       162          162.000000         3.599051545       280.926766594      -992.617433342      -988.989236728        10.899512302
       163          163.000000         3.932333288       306.941332194      -993.066718959      -989.106655413        10.888513334
       164          164.000000         3.948372830       308.193311131      -993.093945735      -989.119321281        10.935492866
       165          165.000000         3.546338444       276.812204555      -992.542440727      -988.971254209        10.920300780
       166          166.000000         3.937942615       307.379172563      -993.111480463      -989.150138553        10.990972830
       167          167.000000         3.760549908       293.532646947      -992.834898427      -989.052442529        10.904474078
       168          168.000000         3.732626982       291.353101188      -992.789654187      -989.036595010        10.933801295
       169          169.000000         3.964264091       309.433715843      -993.133768453      -989.150609726        10.913051998
       170          170.000000         3.552867064       277.321801080      -992.551741920      -988.981481161        10.924187900
       171          171.000000         3.882887451       303.081798969      -993.014318661      -989.115568534        10.940517381
       172          172.000000         3.974857647       310.260604079      -993.118200604      -989.129103495        10.900188660
       173          173.000000         3.629417547       283.297008498      -992.637118230      -988.995023878        10.919193858
       174          174.000000         3.938760292       307.442996997      -993.115327436      -989.165478829        10.926748658
       175          175.000000         3.713769894       289.881196569      -992.761391549      -989.038140335        10.882735340
       176          176.000000         3.788149782       295.686976511      -992.823844298      -989.027813031        10.882042445
       177          177.000000         4.082403545       318.655182835      -993.229950573      -989.141355890        10.383797675
       178          178.000000         3.648858707       284.814503349      -992.597029322      -988.943616142        10.347549319
       179          179.000000         3.918220403       305.839739984      -992.987837552      -989.066691169        10.933039546
       180          180.000000         4.001022499       312.302921989      -993.072958586      -989.070708935        10.896772033
       181          181.000000         3.762485866       293.683759633      -992.713839666      -988.951773256        10.926886668
       182          182.000000         4.058832484       316.815325294      -993.164266921      -989.107519985        10.371617539
       183          183.000000         3.724117356       290.688875764      -992.701271155      -988.980873855        10.919467952
       184          184.000000         3.779603086       295.019857568      -992.758702416      -988.984412553        10.912376141
       185          185.000000         4.130412161       322.402532618      -993.236750352      -989.113339531        10.891785393
       186          186.000000         3.750848247       292.775376226      -992.704179166      -988.961977525        10.366573848
       187          187.000000         3.931939123       306.910565371      -992.998958299      -989.077276414        10.921319304
       188          188.000000         3.894936387       304.022288008      -992.965187425      -989.082138822        10.895275546
       189          189.000000         3.690288249       288.048318511      -992.672850252      -988.996025598        10.913976366
       190          190.000000         4.066200692       317.390456501      -993.223233980      -989.172125931        10.917329354
       191          191.000000         3.737717087       291.750413333      -992.753535735      -989.032524158        10.895758172
       192          192.000000         3.727538824       290.955941069      -992.744825867      -989.035548693        10.972901575
       193          193.000000         4.024736949       314.153971784      -993.150270728      -989.145427183        10.378034946
       194          194.000000         3.735092443       291.545544710      -992.717606710      -989.004019169        10.988232540
       195          195.000000         3.986274231       311.151734472      -993.087206689      -989.124048329        10.915380556
       196          196.000000         3.885074393       303.252502410      -992.951471510      -989.091134085        10.394186171
       197          197.000000         3.654068755       285.221177736      -992.591028267      -988.963242631        10.419368370
       198          198.000000         4.062079196       317.068749905      -993.162166583      -989.127973121        10.919901825
       199          199.000000         3.802424922       296.801233672      -992.788714043      -989.015778570        10.903978480
       200          200.000000         3.792213242       296.004153102      -992.788014845      -989.026838895        10.385156218
       201          201.000000         3.993964199       311.751980892      -993.082881319      -989.121543103        10.958502730
       202          202.000000         3.685159307       287.647974978      -992.608410666      -988.957423520        10.954626475
       203          203.000000         3.977075776       310.433741869      -993.027078561      -989.085730376        10.961461952
       204          204.000000         3.883841124       303.156238640      -992.914030608      -989.067491030        10.939576644
       205          205.000000         3.626604247       283.077414218      -992.553537917      -988.965730360        10.979419306
       206          206.000000         3.999951826       312.219349746      -993.087396297      -989.127781795        10.926947873
       207          207.000000         3.783518932       295.325511965      -992.723566334      -988.981934734        11.455828300
       208          208.000000         3.842521458       299.930999998      -992.806774035      -989.007657558        10.937540699
       209          209.000000         3.986544383       311.172821400      -993.019726360      -989.078136373        10.975042593
       210          210.000000         3.628768012       283.246308583      -992.503994691      -988.921665616        10.964593293
       211          211.000000         3.946174871       308.021747720      -992.940615166      -989.042374455        10.958119130
       212          212.000000         3.892527273       303.834242743      -992.858254433      -989.015189241        10.943942942
       213          213.000000         3.657761053       285.509382952      -992.532664070      -988.925823592        10.932809412
       214          214.000000         3.970274413       309.902856204      -992.982170602      -989.064305057        10.952964569
       215          215.000000         3.742017539       292.086088463      -992.605202738      -988.917077993        10.941556752
       216          216.000000         3.859222243       301.234592722      -992.775295044      -988.971430257        10.930006463
       217          217.000000         4.018756110       313.687132772      -993.009455455      -989.047560190        10.927849414
       218          218.000000         3.630412878       283.374699870      -992.475833709      -988.903710254        10.894893629
       219          219.000000         3.898540123       304.303580463      -992.869573799      -989.030744459        10.979079282
       220          220.000000         3.865300977       301.709073080      -992.809387489      -989.005248256        10.967202587
       221          221.000000         3.709471216       289.545659866      -992.573676244      -988.926769825        10.389988406
       222          222.000000         4.002336653       312.405499295      -993.003912815      -989.065572928        10.978502501
       223          223.000000         3.711062354       289.669857415      -992.578356704      -988.932694130        10.895411937
       224          224.000000         3.835857921       299.410872423      -992.737246068      -988.968163906        10.900035044
       225          225.000000         4.028985474       314.485593741      -993.012882254      -989.052092690        10.913112108
       226          226.000000         3.690682726       288.079109731      -992.526620866      -988.905491090        10.934917545
       227          227.000000         3.927845963       306.591070576      -992.899152841      -989.042201387        10.899984198