#     Step Nr.          Time[fs]        Kin.[a.u.]          Temp[K]            Pot.[a.u.]        Cons Qty[a.u.]        UsedTime[s]
         0            0.000000         3.844830508       300.000000000     -1659.226686374     -1655.381380843         0.000000000
         1            1.000000         3.906864947       304.840351640     -1659.284167196     -1655.375964029        50.191449299
         2            2.000000         3.632770849       283.453653547     -1658.961159452     -1655.326206703        13.405405294
         3            3.000000         3.628622983       283.130008598     -1658.917219134     -1655.285635454        13.408663332
         4            4.000000         3.938998889       307.347661817     -1659.312560820     -1655.369824480        13.466723103
         5            5.000000         3.822727993       298.275410459     -1659.141565762     -1655.314295232        13.399778917
         6            6.000000         3.687683265       287.738296197     -1659.048758898     -1655.355758675        14.167587921
         7            7.000000         3.803682835       296.789376829     -1659.262092558     -1655.452344878        14.203779280
         8            8.000000         3.775936310       294.624402977     -1659.162006080     -1655.379259699        14.134208418
         9            9.000000         4.041476952       315.343701850     -1659.445388667     -1655.396339371        13.458119553
        10           10.000000         3.774194999       294.488533984     -1659.075768872     -1655.293213078        13.435845293
        11           11.000000         3.569431889       278.511514220     -1658.747005608     -1655.168483617        13.483598918
        12           12.000000         3.812158312       297.450691548     -1659.160307823     -1655.338368785        13.414759360
        13           13.000000         3.889001823       303.446548379     -1659.188964074     -1655.289471269        13.530868739
        14           14.000000         3.891502487       303.641667332     -1659.222171460     -1655.319453162        14.182462834
        15           15.000000         3.858439752       301.061886390     -1659.251943341     -1655.381557071        14.167602077
        16           16.000000         3.647975232       284.640003596     -1658.988074160     -1655.327445972        14.216794703
        17           17.000000         3.996510938       311.835145594     -1659.330804643     -1655.320946479        13.462006930
        18           18.000000         3.932221640       306.818854460     -1659.213254985     -1655.266945108        13.409451537
        19           19.000000         3.738193597       291.679458089     -1658.929165395     -1655.176152127        13.422134917
        20           20.000000         3.793063435       295.960778479     -1659.117304960     -1655.308718195        13.470436644
        21           21.000000         3.824905974       298.445351455     -1659.159767417     -1655.318636818        13.492320068
        22           22.000000         3.986272201       311.036249284     -1659.357426439     -1655.354210845        13.422547154
        23           23.000000         4.021456663       313.781581888     -1659.331156278     -1655.291992814        13.434934288
        24           24.000000         3.662091094       285.741419760     -1658.854820733     -1655.174264499        14.209161915
        25           25.000000         3.882570385       302.944723594     -1659.298509534     -1655.396750673        14.322930641
        26           26.000000         3.919484322       305.825001695     -1659.324371735     -1655.384947335        14.264437471
        27           27.000000         3.891177607       303.616317996     -1659.249244982     -1655.337360888        14.233669940
        28           28.000000         3.878486462       302.626067971     -1659.251032476     -1655.351066850        13.447612073
        29           29.000000         3.759168321       293.316049639     -1659.062937481     -1655.281525858        13.397536404
        30           30.000000         3.938624052       307.318414405     -1659.279462185     -1655.317833807        13.407742452
        31           31.000000         4.108711874       320.589830828     -1659.124327521     -1654.991795562        13.398459852
        32           32.000000         3.771073997       294.245012042     -1658.693813606     -1654.898079467        13.612641823
        33           33.000000         3.822322250       298.243751598     -1659.005230063     -1655.157442293        13.419414923
        34           34.000000         3.823571230       298.341205542     -1658.953292557     -1655.103449931        13.450883083
        35           35.000000         3.938787544       307.331171194     -1659.045578831     -1655.079702474        14.329049900
        36           36.000000         4.028518079       314.332561900     -1659.198527354     -1655.142061914        13.413318422
        37           37.000000         3.769162353       294.095852481     -1658.957778047     -1655.159799142        13.670708314
        38           38.000000         3.805810823       296.955416980     -1658.980948288     -1655.145483390        13.548970610
        39           39.000000         4.053066144       316.247969975     -1659.147154110     -1655.063566700        13.387149554
        40           40.000000         3.882834311       302.965316861     -1658.942091152     -1655.027827224        13.481756128
        41           41.000000         3.899525654       304.267689745     -1659.012511887     -1655.080652528        13.406418923
        42           42.000000         3.706220371       289.184688101     -1658.784715218     -1655.045271177        13.378993239
        43           43.000000         3.795012991       296.112896221     -1658.769075950     -1654.939981106        13.384113878
        44           44.000000         4.064869843       317.168975409     -1659.114840291     -1655.014994001        13.384408321
        45           45.000000         3.871301593       302.065455229     -1658.995918112     -1655.088702909        13.430847734
        46           46.000000         3.756107871       293.077252400     -1658.859730229     -1655.066799950        13.494929917
        47           47.000000         3.882180444       302.914297694     -1659.063485869     -1655.143583881        14.192839444
        48           48.000000         3.843511219       299.897060005     -1658.976710952     -1655.094564675        13.372214880
        49           49.000000         4.029817713       314.433968231     -1659.173777806     -1655.104387732        13.405113231
        50           50.000000         3.788305602       295.589539779     -1658.879463400     -1655.050627471        13.471052360
        51           51.000000         3.726373612       290.757181967     -1658.777109911     -1655.009291028        13.404865600
        52           52.000000         3.990386810       311.357299251     -1659.127536697     -1655.094779993        13.496463601
        53           53.000000         3.953956745       308.514776160     -1659.040902200     -1655.043600729        13.406647421
        54           54.000000         3.884541778       303.098545162     -1658.952497676     -1655.023627250        13.348611970
        55           55.000000         3.871028483       302.044145327     -1658.935129015     -1655.018788263        13.446400061
        56           56.000000         3.750671922       292.653102460     -1658.761475369     -1654.964521337        13.443807069
        57           57.000000         4.059256114       316.730953823     -1659.245685204     -1655.139160708        13.387571733
        58           58.000000         3.921996794       306.021041927     -1659.084505701     -1655.114199333        13.413695298
        59           59.000000         3.765404063       293.802604925     -1658.919734598     -1655.105002471        14.123843782
        60           60.000000         3.890290093       303.547068036     -1659.112442301     -1655.171818146        14.153244648
        61           61.000000         3.920443877       305.899872722     -1659.150218121     -1655.178406463        14.153793603
        62           62.000000         3.992228103       311.500969478     -1659.319558378     -1655.274898144        14.086200196
        63           63.000000         3.955972646       308.672070484     -1659.294820106     -1655.285318175        13.434505310
        64           64.000000         3.706810098       289.230702610     -1658.964768378     -1655.203353977        14.132739894
        65           65.000000         4.033100532       314.690116285     -1659.381937854     -1655.293160128        13.429661207
        66           66.000000         4.039596989       315.197014313     -1659.399299053     -1655.302874500        14.108362921
        67           67.000000         3.926580921       306.378726888     -1659.251684132     -1655.267103112        14.111828115
        68           68.000000         3.890585931       303.570151319     -1659.261296115     -1655.311540705        14.121666558
        69           69.000000         3.809513297       297.244309357     -1659.007826079     -1655.137983369        13.468386687
        70           70.000000         4.008615219       312.779604478     -1659.230274609     -1655.160152312        13.402658481
        71           71.000000         4.121569957       321.593106522     -1659.508211627     -1655.323877676        14.143623855
        72           72.000000         3.802707688       296.713289176     -1659.105661674     -1655.238919710        14.248340327
        73           73.000000         3.948807977       308.113034031     -1659.223407027     -1655.209319139        14.246167589
        74           74.000000         3.952193235       308.377174980     -1659.208099614     -1655.189339734        14.139760938
        75           75.000000         4.010679500       312.940673842     -1659.224025146     -1655.145459247        14.186290879
        76           76.000000         4.004401629       312.450831312     -1659.332601199     -1655.258952898        14.185759641
        77           77.000000         3.783525433       295.216558294     -1658.979540733     -1655.125421218        14.110461663
        78           78.000000         3.899660575       304.278217178     -1659.015336086     -1655.043757246        13.433445498
        79           79.000000         4.116907984       321.229347450     -1659.330273758     -1655.140053163        14.177879151
        80           80.000000         3.893186352       303.773053983     -1659.043639930     -1655.075704843        13.462330427
        81           81.000000         3.936544254       307.156134374     -1659.229121448     -1655.216409879        14.169764806
        82           82.000000         3.815929375       297.744935699     -1659.043496995     -1655.149983735        13.470263999
        83           83.000000         3.952250076       308.381610091     -1659.302477676     -1655.271226191        14.183297180
        84           84.000000         4.097255247       319.695906330     -1659.514932561     -1655.337187184        14.293809816
        85           85.000000         3.860562564       301.227522671     -1659.201929971     -1655.259366799        14.128242239
        86           86.000000         3.830887391       298.912062532     -1659.197688035     -1655.283335174        14.143323619
        87           87.000000         4.051168894       316.099933568     -1659.534678873     -1655.398543654        14.790639885
        88           88.000000         3.980615082       310.594842077     -1659.413556722     -1655.346415045        14.786816750
        89           89.000000         4.091715117       319.263627478     -1659.624922627     -1655.445084197        15.536602631
        90           90.000000         3.813619011       297.564665290     -1659.288076789     -1655.384735583        14.807981655
        91           91.000000         3.840794044       299.685047398     -1659.310823972     -1655.378763655        15.505465377
        92           92.000000         4.065293452       317.202028254     -1659.596575277     -1655.438422485        14.809042700
        93           93.000000         3.988222336       311.188412112     -1659.401059236     -1655.318323460        14.152900040
        94           94.000000         3.912435209       305.274981582     -1659.432877741     -1655.424284065        14.837604184
        95           95.000000         3.949310007       308.152205796     -1659.433818836     -1655.386704406        14.872520488
        96           96.000000         3.878876617       302.656510468     -1659.316397037     -1655.338066780        14.824891526
        97           97.000000         4.141455550       323.144716625     -1659.588975128     -1655.346369206        14.141120695
        98           98.000000         3.896204636       304.008561179     -1659.277404940     -1655.278310890        14.113330204
        99           99.000000         3.775270543       294.572455234     -1659.155999322     -1655.276175880        14.142395083
       100          100.000000         3.935793331       307.097542174     -1659.446595766     -1655.404594914        14.096433606
       101          101.000000         3.977814095       310.376289892     -1659.404397444     -1655.318673277        14.167081587
       102          102.000000         4.011603654       313.012782630     -1659.467731178     -1655.346483202        14.038544733
       103          103.000000         3.978662447       310.442484138     -1659.435051587     -1655.344990275        15.549113460
       104          104.000000         3.787766441       295.547470793     -1659.289969371     -1655.389088744        16.187461525
       105          105.000000         4.079251865       318.291159233     -1659.619316536     -1655.425226211        15.553953417
       106          106.000000         3.981943935       310.698528268     -1659.632304742     -1655.533731655        16.976330884
       107          107.000000         3.904008937       304.617506149     -1659.547100645     -1655.524697626        16.973550957
       108          108.000000         3.938734267       307.327014154     -1659.591897589     -1655.533015186        17.023512773
       109          109.000000         3.966378680       309.484020527     -1659.555296569     -1655.466999611        17.043696340
       110          110.000000         4.116615718       321.206542831     -1659.743503930     -1655.503149234        16.240709208
       111          111.000000         4.142605542       323.234446823     -1659.812442053     -1655.544201732        16.220023982
       112          112.000000         3.851905703       300.552055136     -1659.513975071     -1655.534566135        16.898340572
       113          113.000000         4.080886549       318.418708435     -1659.822960744     -1655.612722865        16.291479211
       114          114.000000         4.068396276       317.444131845     -1659.941727897     -1655.742060595        16.923386376
       115          115.000000         4.100943290       319.983672733     -1659.854573915     -1655.620410127        17.004327793
       116          116.000000         4.066907252       317.327947974     -1659.831671615     -1655.629567117        17.695196029
       117          117.000000         3.966223730       309.471930317     -1659.659486451     -1655.556102505        17.448339432
       118          118.000000         4.136516019       322.759300542     -1660.000892191     -1655.725230336        18.432832763
       119          119.000000         4.285411797       334.377168597     -1660.162737151     -1655.736081834        19.833134077
       120          120.000000         3.993986693       311.638186740     -1659.796628471     -1655.659284459        18.396463279
       121          121.000000         4.090067402       319.135061460     -1659.951587408     -1655.716088697        17.006729532
       122          122.000000         4.022216127       313.840840466     -1659.923075073     -1655.753332300        18.428665351
       123          123.000000         4.198613391       327.604562728     -1660.122060280     -1655.773787399        23.431993488
       124          124.000000         4.265101892       332.792450756     -1660.298084919     -1655.881090703        20.566017218
       125          125.000000         4.058835814       316.698159115     -1659.693855660     -1655.480887575        20.801635724
       126          126.000000         4.065507907       317.218761506     -1659.728762738     -1655.506925582        27.178352423
       127          127.000000         4.234787866       330.427142914     -1659.828041146     -1655.434670047        19.262461755
       128          128.000000         4.085277667       318.761333553     -1659.858130720     -1655.611979657       222.745747365
       129          129.000000         4.132862463       322.474225142     -1659.657266961     -1655.361258326        19.319541376
       130          130.000000         3.909428131       305.040348763     -1659.412207125     -1655.337402272        21.560889669
       131          131.000000         4.027258042       314.234245172     -1659.610407983     -1655.415597401        18.533573449
       132          132.000000         4.215171415       328.896533128     -1659.834346403     -1655.449371969        19.148969684
       133          133.000000         4.062894483       317.014844259     -1659.544233742     -1655.309257687        16.991623905
       134          134.000000         3.962732105       309.199489806     -1659.380387994     -1655.243370436        16.887032032
       135          135.000000         4.025926676       314.130362897     -1659.450455993     -1655.248074413        16.887336496
       136          136.000000         3.959166535       308.921279604     -1659.539896350     -1655.402125803        17.016799327
       137          137.000000         4.162886054       324.816871220     -1659.835651501     -1655.491999609        16.290381864
       138          138.000000         3.924701366       306.232071182     -1659.528976371     -1655.421357139        17.041403752
       139          139.000000         3.920634432       305.914741106     -1659.535905152     -1655.430298256        16.944407117
       140          140.000000         4.098981193       319.830576460     -1659.712643602     -1655.426625697        16.950616740
       141          141.000000         4.088836733       319.039036250     -1659.655397701     -1655.377425533        16.210484881
       142          142.000000         4.033034172       314.684938367     -1659.678336924     -1655.454093518        16.231917221
       143          143.000000         3.986194065       311.030152541     -1659.649421897     -1655.469989689        16.942726038
       144          144.000000         3.857748153       301.007923066     -1659.289455807     -1655.236515114        14.839395311
       145          145.000000         4.159382287       324.543483360     -1659.675537234     -1655.319009216        15.623630080
       146          146.000000         4.039835872       315.215653576     -1659.512992130     -1655.274016056        14.900081906
       147          147.000000         3.981212514       310.641457805     -1659.365403394     -1655.183115536        14.163622633
       148          148.000000         4.034482692       314.797961846     -1659.409225248     -1655.171760182        14.127819829
       149          149.000000         4.024835242       314.045201717     -1659.337164638     -1655.107449602        14.120725743
       150          150.000000         4.103111517       320.152852650     -1659.275897351     -1654.966010547        14.168464661
       151          151.000000         4.047922409       315.846620567     -1659.251099830     -1654.994508533        14.127413582
       152          152.000000         3.830964266       298.918060848     -1658.941720664     -1654.900275930        13.545471899
       153          153.000000         4.093618868       319.412171162     -1659.390849695     -1655.084975179        14.149786249
       154          154.000000         4.067854831       317.401884615     -1659.364153965     -1655.082226520        14.229193714
       155          155.000000         4.066972190       317.333014875     -1659.354674126     -1655.071826758        14.185818855
       156          156.000000         4.046472938       315.733522940     -1659.364944087     -1655.100807640        14.206851423
       157          157.000000         3.959847033       308.974376744     -1659.213327733     -1655.034066853        14.155802418
       158          158.000000         4.075613488       318.007268161     -1659.393854942     -1655.097095803        14.256246574
       159          159.000000         4.122720187       321.682855327     -1659.469270140     -1655.123644428        14.857251491
       160          160.000000         3.873840066       302.263524316     -1659.141909193     -1655.043449632        14.876325466
       161          161.000000         4.031109473       314.534760166     -1659.418070372     -1655.160682307        14.937595110
       162          162.000000         4.012438011       313.077884895     -1659.422059819     -1655.181671558        15.065298367
       163          163.000000         4.126468031       321.975287730     -1659.546660279     -1655.190562383        15.018206701
       164          164.000000         4.104483085       320.259871718     -1659.551876457     -1655.216059124        14.223755833
       165          165.000000         3.903765960       304.598547463     -1659.244495983     -1655.107737198        14.942887094
       166          166.000000         3.964700469       309.353074992     -1659.493940069     -1655.294645983        17.132657111
       167          167.000000         4.113561142       320.968203914     -1659.667959628     -1655.318181237        16.364983134
       168          168.000000         3.952808452       308.425178464     -1659.475288846     -1655.284640124        17.012044288
       169          169.000000         4.037149010       315.006006185     -1659.613262345     -1655.336682005        16.305388510
       170          170.000000         3.885152066       303.146163977     -1659.416685294     -1655.290534614        16.969526265
       171          171.000000         4.021577149       313.790983027     -1659.607191160     -1655.343078399        17.070908446
       172          172.000000         4.118602330       321.361551926     -1659.750014157     -1655.387300176        17.740090370
       173          173.000000         3.959881120       308.977036414     -1659.576403286     -1655.370837571        16.967046455
       174          174.000000         3.933248218       306.898955035     -1659.575953479     -1655.395497082        16.934690513
       175          175.000000         4.060236376       316.807440561     -1659.710555088     -1655.401584913        16.920434348
       176          176.000000         4.023543517       313.944412499     -1659.666585478     -1655.392763522        16.973433882
       177          177.000000         4.198272366       327.577953577     -1659.965176853     -1655.515050327        16.246283446
       178          178.000000         3.989809702       311.312269318     -1659.747614642     -1655.504355466        16.204743449
       179          179.000000         4.034478343       314.797622517     -1659.759559643     -1655.470069164        16.866525576
       180          180.000000         4.147308201       323.601380546     -1659.885999535     -1655.482081341        16.873995528
       181          181.000000         4.084459826       318.697519974     -1659.776201976     -1655.433502150        16.224517539
       182          182.000000         4.065249421       317.198592648     -1659.772600024     -1655.447481831        16.234678149
       183          183.000000         4.107168141       320.469378173     -1659.825389920     -1655.456707867        16.196047287
       184          184.000000         4.048925101       315.924857488     -1659.853744230     -1655.541646665        17.047738478
       185          185.000000         4.281057497       334.037416316     -1659.974265167     -1655.428325615        15.538073175
       186          186.000000         4.084063178       318.666570815     -1659.676162248     -1655.325454266        15.551037222
       187          187.000000         4.025682807       314.111334554     -1659.605777168     -1655.311722119        14.870098196
       188          188.000000         4.087021186       318.897374809     -1659.707113993     -1655.349986550        14.926887505
       189          189.000000         4.081332470       318.453502253     -1659.600270286     -1655.247071236        14.159402546
       190          190.000000         4.111515906       320.808620635     -1659.667844078     -1655.282679677        14.156007271
       191          191.000000         4.094602248       319.488901208     -1659.586356584     -1655.216300306        14.108176451
       192          192.000000         3.952100594       308.369946532     -1659.392520640     -1655.163180613        14.077417932
       193          193.000000         4.188221396       326.793708111     -1659.707076105     -1655.239810220        14.226623770
       194          194.000000         4.068804995       317.476022918     -1659.551782812     -1655.202072581        14.468184236
       195          195.000000         4.015656679       313.329027391     -1659.504051362     -1655.205652090        14.851247042
       196          196.000000         3.992082901       311.489639850     -1659.337361322     -1655.060712315        14.188608468
       197          197.000000         3.963340530       309.246963248     -1659.275015012     -1655.025298529        14.783534747
       198          198.000000         4.084075094       318.667500574     -1659.424350329     -1655.052071693        14.221473016
       199          199.000000         4.125847817       321.926894426     -1659.425134163     -1655.009201525        14.167513005
       200          200.000000         3.944115510       307.746895589     -1659.208658452     -1654.972587453        14.170542639
       201          201.000000         4.124175187       321.796384411     -1659.588742344     -1655.170742250        15.598166574
       202          202.000000         4.071705879       317.702369753     -1659.503603319     -1655.136151812        14.841543738
       203          203.000000         4.128833110       322.159827435     -1659.534392810     -1655.107872363        15.559913479
       204          204.000000         4.091446448       319.242664083     -1659.520561138     -1655.129454412        14.048706852
       205          205.000000         3.983835833       310.846147127     -1659.364890884     -1655.079437731        14.139875542
       206          206.000000         4.072156601       317.737538121     -1659.369055042     -1654.993325241        14.066318031
       207          207.000000         4.164517313       324.944153261     -1659.479818016     -1655.009710198        14.151317362
       208          208.000000         3.996122806       311.804860923     -1659.237019833     -1654.933278207        14.104474153
       209          209.000000         4.069162755       317.503937796     -1659.291335749     -1654.912542144        14.154652812
       210          210.000000         3.958350177       308.857581802     -1659.182124477     -1654.912129356        14.069427337
       211          211.000000         4.068208373       317.429470406     -1659.513043362     -1655.131177038        14.867863465
       212          212.000000         4.124865803       321.850270955     -1659.598536910     -1655.157943002        14.145935308
       213          213.000000         4.030159169       314.460610965     -1659.692497080     -1655.344524761        19.822154574
       214          214.000000         4.055320220       316.423848422     -1659.745705328     -1655.370493099        14.926978841
       215          215.000000         4.167635586       325.187462240     -1659.915137148     -1655.425479028        21.841683552
       216          216.000000         4.055830569       316.463669333     -1659.706552891     -1655.326537585        16.196621731
       217          217.000000         4.150674960       323.864078082     -1659.858402880     -1655.381366226        16.910564598
       218          218.000000         3.957871945       308.820266856     -1659.619595423     -1655.333185400        16.970834874
       219          219.000000         4.044860832       315.607735404     -1659.702630897     -1655.327084152        16.968894284
       220          220.000000         4.167127348       325.147806054     -1659.956166881     -1655.456137693        16.882880319
       221          221.000000         4.127739744       322.074515554     -1659.789705839     -1655.326793340        15.508962020
       222          222.000000         4.126010509       321.939588737     -1659.815562146     -1655.352090127        15.501256634
       223          223.000000         4.171282485       325.472018261     -1659.862727550     -1655.351653994        15.525945418
       224          224.000000         4.109807082       320.675286465     -1659.739286304     -1655.287329495        14.819791410
       225          225.000000         4.280007782       333.955510344     -1659.981516483     -1655.356939581        15.516303189
       226          226.000000         4.090102178       319.137774956     -1659.647866875     -1655.210732637        14.114259247
       227          227.000000         4.080751801       318.408194527     -1659.651262808     -1655.221052625        14.783519745