    2699
 i =        0, time =        0.000, E =     -1659.2266863736
  C        13.4015230000       13.0378740000       10.4702990000
  O        14.2260140000       13.6237710000        9.7907930000
  O        11.5865070000       10.9454610000       11.7777430000
  N        12.1043000000       13.2510430000       10.7043170000
  H        11.7423110000       13.9308800000       10.0979920000
  H        11.0017540000       10.1813270000       11.3940330000
  H        11.5706450000       11.8456960000       11.1709790000
  N        13.8901840000       11.6261460000       11.0039680000
  H        12.6859080000       10.8972610000       11.5590030000
  H        14.0423280000       11.2048640000       10.0615880000
  H        14.8544650000       11.8550420000       11.2799680000
  O         4.9306830000       14.6919580000        2.8406110000
  H         5.3340440000       13.8929150000        3.1852750000
  H         4.8724170000       14.4679180000        1.9064330000
  O         0.7674660000        7.7330660000      -10.9058850000
  H        -0.0889330000        7.9580920000      -10.4924160000
  H         1.3065120000        8.4606130000      -10.5306450000
  O        26.0957830000       25.6911430000       -6.8266110000
  H        25.2296010000       26.0863020000       -6.6584170000
  H        26.0335940000       24.8147450000       -6.3619520000
  O        23.1777740000        8.1492550000        9.7401210000
  H        23.0384030000        8.9597020000       10.2289480000
  H        22.7554720000        8.4097740000        8.8627690000
  O        17.0274470000       -2.8752330000        6.5819870000
  H        18.0137520000       -2.7436650000        6.6773830000
  H        16.9572830000       -2.6679960000        5.6071910000
  O        -1.2329140000       20.7987690000       -4.6019760000
  H        -0.6767970000       21.6251110000       -4.6574900000
  H        -0.5635930000       20.1984900000       -5.0552930000
  O        -3.5559430000       11.6733790000        0.2112140000
  H        -2.7333570000       11.1973620000        0.1096670000
  H        -3.3224120000       12.4884000000        0.5478920000
  O        22.8014580000        2.3200440000       -2.7062870000
  H        23.0529480000        1.8705880000       -1.9104490000
  H        22.1560360000        2.9534560000       -2.3098900000
  O        16.8182260000       23.1630170000       -3.9537270000
  H        17.4157580000       23.4201470000       -3.1937310000
  H        17.4947800000       23.3227630000       -4.6814990000
  O         0.1970010000       10.1937380000        3.1455940000
  H        -0.5126830000        9.9680290000        2.5311310000
  H         0.9336050000        9.6690030000        2.7112660000
  O         6.8023070000       19.3773710000      -14.4913400000
  H         5.8889510000       19.4728850000      -14.1005860000
  H         6.5554160000       18.7444340000      -15.2186020000
  O        22.9474600000        5.1744960000       -5.0561450000
  H        23.1092190000        6.0297860000       -4.6123550000
  H        23.6963100000        4.6494920000       -4.7105830000
  O         1.9179910000        1.0113790000       -9.6284960000
  H         1.6381140000        1.4191640000      -10.4948550000
  H         1.8188410000        1.8072380000       -8.9896560000
  O        21.3704340000        4.5245600000       -1.3126690000
  H        21.0510650000        5.1737050000       -1.9638680000
  H        21.8889640000        5.0765420000       -0.6839050000
  O        10.2567480000        0.4856230000       -9.8349740000
  H        10.8675660000        1.2291870000       -9.7804280000
  H         9.5320480000        0.7461730000       -9.2161930000
  O        -1.2458920000       17.4893530000        0.5313050000
  H        -1.1246620000       18.3745820000        0.0615010000
  H        -0.4771930000       16.9962250000        0.1356770000
  O        23.5209080000       -4.5907340000       -4.2870580000
  H        23.1317520000       -4.5205910000       -3.3589790000
  H        24.4271430000       -4.2544630000       -4.0930710000
  O        21.1655350000       25.0558430000       -6.8204150000
  H        21.0304910000       25.6612850000       -6.0195040000
  H        21.8331740000       24.4409640000       -6.3769970000
  O        17.4876160000       12.5919770000       -9.8569560000
  H        16.7750680000       13.0583140000      -10.2786700000
  H        17.6120620000       13.1549290000       -9.0517630000
  O        11.6530180000       14.4167560000      -15.0554040000
  H        11.0154710000       15.0766070000      -14.7094520000
  H        11.6983550000       14.6620220000      -16.0024780000
  O        18.0323520000       27.9548630000      -12.8318830000
  H        18.1213490000       27.6556720000      -11.9041170000
  H        18.0693360000       27.0927200000      -13.2777420000
  O        20.9720900000        3.5173200000       -5.5384650000
  H        21.7273030000        4.1747220000       -5.4454610000
  H        21.5020450000        2.7372210000       -5.7880230000
  O        20.4147470000       -1.9732820000       -2.6665610000
  H        20.0752980000       -2.8271680000       -2.2741360000
  H        19.7366830000       -1.3081230000       -2.3792280000
  O        -2.6520060000        5.4458830000      -11.3989340000
  H        -2.3530790000        6.1585560000      -12.0085950000
  H        -2.3474690000        4.6734440000      -11.9024460000
  O        20.5802210000       11.7935850000       -0.7523460000
  H        21.5573500000       11.5579690000       -0.7988770000
  H        20.7409480000       12.8061800000       -0.9187320000
  O        15.3119880000        7.1868640000        1.9356720000
  H        15.6842870000        8.0684820000        1.7661210000
  H        14.3786120000        7.4016380000        1.6725940000
  O         0.3100270000       25.3457200000       -3.8223040000
  H         0.7728320000       26.1976340000       -3.5032510000
  H         0.4682060000       25.5281660000       -4.8395280000
  O        23.7547910000        4.5127470000      -13.4339310000
  H        23.4131530000        5.4499180000      -13.4105510000
  H        22.9352800000        4.0122940000      -13.7434930000
  O        13.1942620000       -1.0994720000       -4.3165410000
  H        13.6286770000       -1.5845580000       -3.5805140000
  H        13.3578220000       -0.1881800000       -3.9554970000
  O        20.9380190000       -3.9920420000        1.0573430000
  H        21.8792500000       -3.7077750000        1.1627060000
  H        20.4962580000       -3.1208850000        0.8470570000
  O        -1.5820810000        7.0829830000      -13.3168400000
  H        -1.6580150000        8.0886030000      -13.2474720000
  H        -0.6523610000        7.0476410000      -13.6749470000
  O        24.4109540000       -2.0773930000        3.6998850000
  H        24.7290710000       -2.9470790000        3.4302510000
  H        25.1554360000       30.5234600000        3.4595450000
  O         6.2311120000       -2.8793750000        7.0784560000
  H         5.9661490000       -3.2433240000        6.2124330000
  H         6.7352360000       -3.6020300000        7.4382060000
  O         5.8570340000        2.7302340000       -5.3179060000
  H         6.6568500000        2.1703830000       -5.3040230000
  H         5.7409640000        2.8899360000       -4.3393190000
  O         8.7066540000       -5.2044940000      -11.8505460000
  H         8.1716700000       -4.7712210000      -11.1900010000
  H         9.6065260000       -5.1285200000      -11.4479100000
  O        28.3356650000       16.3725200000        7.6366860000
  H        29.2514990000       16.5184690000        7.4067590000
  H        27.8715210000       16.6505070000        6.8514620000
  O        24.6462780000        8.1316880000        1.6043920000
  H        25.4013250000        8.4619550000        1.0393900000
  H        24.8594910000        8.6448400000        2.4153260000
  O        22.9263860000        5.5674720000       -7.8443000000
  H        23.7590270000        5.0213220000       -7.8758860000
  H        22.7942140000        5.6248100000       -6.8716080000
  O         3.7496800000        3.1602280000      -13.4217610000
  H         4.7041640000        3.1879270000      -13.6839720000
  H         3.6114880000        2.1395820000      -13.4503170000
  O         9.7625820000        3.1526270000        2.9759150000
  H        10.3251690000        3.9026190000        3.2762630000
  H         8.9110380000        3.6615110000        2.9622010000
  O         9.1358760000        0.7136770000       -1.3784070000
  H         9.8092270000        1.1924860000       -0.8604620000
  H         9.6494590000       -0.0062380000       -1.8010310000
  O         3.4407520000        0.4088640000      -13.6335390000
  H         2.8725510000       -0.2811030000      -14.1343390000
  H         3.4892660000       -0.0293560000      -12.7033760000
  O        24.1486550000        2.9072590000        0.7040630000
  H        25.1456700000        2.8363720000        0.5089670000
  H        24.0701480000        3.8717580000        0.6192220000
  O        14.8446290000       15.3713490000        4.3134130000
  H        15.0862650000       14.4217070000        4.3444970000
  H        13.9743400000       15.5032340000        4.7011050000
  O         4.8515200000        9.5823300000      -11.8515460000
  H         5.8058820000        9.7043290000      -11.8547490000
  H         4.5960540000       10.4473770000      -12.2167550000
  O         9.4873470000       14.3440380000      -10.6910820000
  H         9.1382200000       14.5087160000       -9.8119660000
  H         8.6634280000       14.0765170000      -11.1557060000
  O        28.1483170000       -0.1543080000        9.2160100000
  H        28.6575050000        0.2613100000        9.9895640000
  H        28.4230610000        0.4546380000        8.4863660000
  O        19.0265580000       10.6595960000        5.8506610000
  H        18.0275460000       10.6101590000        5.8571740000
  H        19.1112880000       10.4460050000        4.9229680000
  O         8.7897830000       -3.9052670000       -8.6372100000
  H         8.9367170000       -3.2056950000       -9.3520380000
  H         9.7145450000       -4.0965190000       -8.3511630000
  O        16.7256010000       14.6165530000       -1.7473380000
  H        16.3083310000       13.9389660000       -1.1964030000
  H        15.9143550000       15.0775870000       -1.9699210000
  O        10.1402420000        9.0886690000       10.8501000000
  H        10.0413820000        8.8946150000        9.8509290000
  H         9.1886740000        9.2640330000       10.9813790000
  O         7.6287240000       18.5113930000        2.9352620000
  H         6.8502080000       18.8966520000        2.5747050000
  H         8.2067100000       18.5986100000        2.1280130000
  O         7.5942580000       25.1976360000       -2.3439900000
  H         8.1186700000       24.4202120000       -2.6435080000
  H         8.1222400000       25.8982770000       -2.7651160000
  O         7.8406790000       -1.2214910000      -12.8936150000
  H         8.2167920000       -1.6343390000      -13.7395150000
  H         8.5105120000       -1.5874630000      -12.2489090000
  O        18.4816910000       18.5439210000        6.7726550000
  H        18.6905780000       17.8211610000        6.1201060000
  H        17.5059990000       18.4659790000        7.0822030000
  O         3.8701830000       -0.0099050000        8.2882130000
  H         4.0352730000        0.1595630000        9.2355440000
  H         4.2732390000       -0.8474670000        8.0904080000
  O        16.6307140000       -1.6156630000      -13.1324550000
  H        17.4264640000       -1.0626720000      -13.3724060000
  H        17.0051710000       -2.5226410000      -13.2867530000
  O        25.1936470000       23.6932160000      -12.0828500000
  H        26.1758460000       23.5696430000      -12.1643680000
  H        25.1109580000       24.2900830000      -11.2859340000
  O         5.5493600000       -6.4745970000        5.9416170000
  H         6.0997090000       25.4797420000        5.1278300000
  H         6.2485380000       -6.4823240000        6.6075660000
  O         5.7983360000       14.9198440000       -4.8633790000
  H         6.3187070000       15.3499960000       -4.1504050000
  H         6.5284460000       14.3998300000       -5.2721110000
  O        23.0442910000       17.8355200000        5.0118100000
  H        23.2537290000       17.4521200000        5.8926110000
  H        23.6580520000       18.6449970000        5.1637510000
  O         6.9696360000        5.8044330000        0.4924890000
  H         5.9968820000        5.8912340000        0.4618770000
  H         7.1314620000        5.4799170000       -0.3957100000
  O        29.4253650000        1.1290330000       11.3528360000
  H        30.3812540000        1.1692600000       11.6366490000
  H        29.1671770000        2.0852980000       11.4614700000
  O         5.8034050000        0.2465470000       -2.2775280000
  H         6.0563920000       -0.0913660000       -3.0908320000
  H         5.3552290000       -0.5556020000       -1.9564810000
  O        17.3981340000       20.0855660000        2.7162540000
  H        17.8461970000       20.9063430000        3.0783160000
  H        17.7891730000       19.4025860000        3.3145420000
  O        25.9687710000       22.3088170000        1.7112850000
  H        25.6906910000       21.8411080000        2.4716510000
  H        26.9052140000       22.4919470000        1.8672960000
  O        21.3774340000        9.5235140000       -4.5510550000
  H        22.1187970000        9.8944150000       -4.0103150000
  H        20.6949010000       10.2307390000       -4.3900490000
  O        11.1894170000       -1.2055670000       10.1635960000
  H        12.0474980000       -1.6895670000       10.0871370000
  H        11.4697610000       -0.2688800000       10.1297880000
  O         5.1286660000       26.5961360000        9.7151380000
  H         5.8317040000       26.7282730000        9.0452920000
  H         5.5871170000       26.0514470000       10.3622090000
  O        -2.7682350000        1.3270210000       -1.0235340000
  H        -2.0002940000        0.7612180000       -1.2572160000
  H        -2.6460730000        2.0480620000       -1.6438390000
  O         8.2776440000       12.0490440000      -14.2926070000
  H         8.0466480000       12.5953080000      -13.5075940000
  H         9.1972180000       11.7775600000      -14.2032960000
  O         3.3382390000       -2.5831860000       -5.9022910000
  H         3.2832560000       -1.8975460000       -5.2151340000
  H         3.5523000000       -2.0297300000       -6.6822850000
  O        27.8524820000       13.0397400000      -14.1783020000
  H        27.3773400000       12.2419400000      -13.7694850000
  H        27.4705890000       12.9423280000      -15.0905190000
  O        15.6000230000       12.7256460000        5.2261240000
  H        15.6032870000       12.0699980000        4.4922370000
  H        15.1717960000       12.3226610000        6.0088190000
  O        12.1548250000        8.1143090000       -2.0035330000
  H        11.7402740000        8.9869740000       -2.1959450000
  H        11.3217250000        7.5930630000       -1.9075270000
  O        11.6202980000       12.9704050000      -11.3996450000
  H        11.0499540000       13.6679860000      -10.9919710000
  H        12.3204590000       13.5233450000      -11.7576140000
  O        19.0026930000       -3.8747600000       -5.7601180000
  H        19.7507340000       -4.3165430000       -5.3308430000
  H        19.2904190000       -2.9326110000       -5.7623240000
  O        21.3300150000        1.1724540000      -12.2678570000
  H        21.4347520000        2.0130360000      -12.7495380000
  H        21.4781270000        0.5093160000      -13.0015840000
  O         9.3545860000       18.6452350000       -0.9329160000
  H         9.2428560000       17.6652830000       -0.7824940000
  H        10.3121580000       18.7312240000       -0.6567270000
  O        23.8878310000       -2.1531410000       -7.5664250000
  H        24.3069590000       -1.3786780000       -8.0532410000
  H        23.6758590000       -1.6866090000       -6.7036890000
  O        12.0382710000       18.7262100000      -11.4809610000
  H        11.7633130000       18.9809800000      -10.5840400000
  H        11.4457080000       19.3686240000      -11.9680410000
  O        21.2722930000       12.3612230000        8.2133680000
  H        21.1048600000       12.5013600000        7.2486970000
  H        20.6802370000       11.6597860000        8.6233370000
  O         9.7037060000       17.3392580000       11.0086330000
  H         9.9764640000       17.6882590000       11.9235230000
  H         8.7614170000       17.0698740000       11.1266570000
  O         9.7617910000        1.4157040000        5.0694590000
  H         9.6137900000        1.9053870000        4.2315530000
  H         8.8496090000        1.4264320000        5.3801850000
  O        20.2056770000       14.1628520000        5.5145280000
  H        19.4336610000       14.6724490000        5.8150020000
  H        19.8693390000       13.2425710000        5.1162720000
  O        24.7768900000       21.8454700000       10.0299310000
  H        23.9047030000       21.8764780000        9.5815430000
  H        25.1579650000       21.0035480000        9.7005960000
  O         7.2769800000        4.4291230000       -1.8340430000
  H         6.6377600000        3.9193010000       -2.3161370000
  H         8.0849460000        4.0653550000       -2.1931800000
  O         1.0048280000       -1.2832350000        5.6639810000
  H         0.4688850000       -0.7246680000        6.2750660000
  H         0.3319030000       -1.6206580000        5.0046230000
  O        -0.1868100000        2.5782250000        6.2666840000
  H        -1.1227920000        2.7483190000        6.3648130000
  H         0.0393960000        2.1602280000        7.1353000000
  O         8.1234770000       -4.6644690000        2.5229940000
  H         9.0637730000       -4.7116190000        2.2808520000
  H         7.9611340000       -3.6827830000        2.6168450000
  O        22.7302880000       17.4148520000        7.7955980000
  H        22.4921820000       16.4379430000        7.7459110000
  H        21.8844360000       17.8180940000        8.1382370000
  O        18.0909880000       25.1423030000      -13.5508880000
  H        18.2054520000       24.3666900000      -12.9152910000
  H        17.2147660000       24.9043540000      -13.9614020000
  O         7.4436190000        1.2432620000       -8.7961240000
  H         7.2926590000        1.6474010000       -9.6912400000
  H         7.7346350000        2.0126840000       -8.2977990000
  O        16.9061910000       28.2224940000       -3.0205130000
  H        17.6715340000       -3.6653670000       -2.4333790000
  H        17.0009960000       29.0502890000       -3.5936590000
  O        13.3675820000       20.7681470000       -1.9846110000
  H        13.1999370000       21.2308100000       -1.0645950000
  H        14.3699310000       20.7770200000       -1.9510310000
  O         7.3259240000        1.2601920000        8.4347600000
  H         7.8665260000        0.7616800000        7.7870730000
  H         6.6870870000        1.7185120000        7.7765300000
  O        19.9837860000       -6.5872600000        1.6678140000
  H        20.3365020000       -5.7507560000        1.2745540000
  H        20.1562980000       25.5757580000        2.6413350000
  O         1.4342160000       12.6975060000        3.2170990000
  H         1.1462220000       11.7730880000        3.4158280000
  H         2.0486800000       12.5434070000        2.4363110000
  O         2.9201860000        3.1569870000       -2.8881540000
  H         2.6779720000        3.1605250000       -3.8518140000
  H         2.2522500000        2.4857360000       -2.5940620000
  O        16.4559710000        8.8199640000        5.8374500000
  H        16.9455130000        8.0072180000        5.6100740000
  H        15.5128220000        8.7279200000        5.6313380000
  O        13.6395360000        6.7573800000      -10.6260590000
  H        14.5398030000        6.9771380000      -10.2634590000
  H        13.3386150000        7.6969500000      -10.7919110000
  O         1.7961110000       14.6534930000      -11.8484450000
  H         1.2970510000       15.2653820000      -11.2891220000
  H         2.2063580000       14.0593990000      -11.1939870000
  O        19.9422890000        3.9737020000        1.7193940000
  H        19.5489060000        4.6970080000        1.2212980000
  H        20.7303790000        4.3938880000        1.9671710000
  O         5.7813250000       -0.4403930000       -5.2536790000
  H         6.5535950000        0.1454130000       -5.0945970000
  H         5.8008280000       -0.5355470000       -6.2197050000
  O        16.0139100000        1.7419990000        9.0215940000
  H        15.9135580000        1.1923230000        9.8487680000
  H        16.9098010000        1.4574770000        8.7397900000
  O         5.7432970000       19.5436460000        1.2714990000
  H         5.7782630000       20.4034820000        1.7972930000
  H         5.9725770000       19.8221650000        0.3344980000
  O         3.0876540000       21.9425200000        7.8578030000
  H         2.1091430000       22.0690460000        7.9016650000
  H         3.2557420000       21.0214710000        7.6152060000
  O        14.2162540000       -0.9776160000       -8.5337270000
  H        14.1246200000       -0.0224090000       -8.8069040000
  H        15.0100150000       -0.9481740000       -7.9602000000
  O         8.4752170000       29.6924290000       -3.8868770000
  H         8.0974750000       -2.7023740000       -4.7094520000
  H         9.0392650000       -1.6201250000       -4.3082460000
  O         0.3654550000       19.0900290000      -11.9999390000
  H        -0.0631620000       19.5812630000      -12.7033370000
  H         0.5798160000       19.7554510000      -11.2834730000
  O        -1.3039900000       -2.2722940000        3.4098910000
  H        -0.9322090000       -1.4207740000        3.1358000000
  H        -1.6537820000       -2.6720860000        2.5827990000
  O         5.2863100000        7.3499230000      -15.2987790000
  H         6.0340850000        6.9065580000      -14.8257880000
  H         5.6183930000        7.2861290000      -16.2073900000
  O        19.1997340000        0.4593550000       -1.2394530000
  H        18.8224220000        1.2243550000       -0.7144060000
  H        19.5236680000        1.0018880000       -2.0140160000
  O        13.2929270000        5.3920490000       -2.6042650000
  H        13.0860550000        6.3289170000       -2.5148760000
  H        14.2728060000        5.3766000000       -2.5226270000
  O        13.2630010000        9.1979470000        8.9141040000
  H        12.3989050000        9.4723330000        8.4863460000
  H        13.1529610000        8.2481950000        9.0878440000
  O        22.1947350000       -7.0251160000       -0.4516940000
  H        22.8626460000       24.2324680000       -0.3121810000
  H        22.3900180000       -6.5694420000        0.4100320000
  O        -0.3783750000        4.5198490000       -0.8985530000
  H        -0.7963390000        4.0364400000       -1.6330900000
  H         0.2793700000        3.8691700000       -0.6004260000
  O        21.8941540000       20.6679920000       -8.2562550000
  H        21.1386050000       20.7050880000       -7.6196930000
  H        21.5197490000       21.1116160000       -9.0548890000
  O         1.0315670000       -4.2123150000       -2.8060560000
  H         1.1775560000       -3.4883270000       -3.4283220000
  H         1.5270970000       -3.8212700000       -2.0549740000
  O         7.3610820000        4.3385130000        2.7589200000
  H         7.2405460000        4.8898470000        2.0417280000
  H         6.7954130000        4.6840280000        3.4362250000
  O        25.4742570000        2.4183670000        4.0955810000
  H        26.4584580000        2.4075360000        4.1524960000
  H        25.2513030000        2.2234900000        5.0631040000
  O        18.4480170000        9.3280840000        3.5083120000
  H        19.1026330000        8.5566650000        3.5044180000
  H        17.6589910000        8.7851230000        3.7671330000
  O         1.6285430000       14.7971370000        0.6274980000
  H         1.8462420000       15.7292780000        0.3975410000
  H         2.0650340000       14.2622270000       -0.0094770000
  O        13.6098230000       18.9157730000        4.3371440000
  H        12.9055250000       19.0692810000        4.9916860000
  H        13.2963390000       17.9937900000        4.0923530000
  O         7.7977430000       25.8927570000       -5.6210850000
  H         8.2631370000       26.1441100000       -4.7837020000
  H         8.5953230000       25.5391410000       -6.0651920000
  O        27.9025550000       23.0519310000       -8.5039560000
  H        26.9424080000       22.8737430000       -8.4223790000
  H        -3.8638930000       23.1210120000       -7.5432710000
  O        -0.4136310000       27.7536680000       -6.4394280000
  H        -1.2661430000       27.3966430000       -6.2654100000
  H        -0.3498740000       27.6066470000       -7.3681630000
  O        -3.8969190000        1.4626000000        4.4441070000
  H        -3.7606780000        1.7360530000        5.3467140000
  H        -3.6404020000        0.5276220000        4.5105080000
  O        11.0752100000       -0.8857850000       -2.3261820000
  H        11.7525090000       -0.9940650000       -2.9952290000
  H        11.2121540000       -1.5787810000       -1.6716840000
  O        13.2847920000       23.2197820000      -11.5797580000
  H        13.3362540000       22.8675250000      -12.4957710000
  H        13.4710430000       24.1472630000      -11.7917390000
  O        10.9702430000       10.2203550000        0.4159310000
  H        10.8298840000       10.2692090000       -0.5500590000
  H        10.4196000000       10.9978420000        0.7061490000
  O        -5.4312640000       19.6664600000        9.2166400000
  H        -5.1750500000       19.2770520000        8.3618100000
  H        -4.6096580000       19.7434310000        9.7042210000
  O         3.6283210000       23.0524540000        4.2912300000
  H         3.8398940000       23.9674930000        4.5827630000
  H         4.4761300000       22.6952860000        3.8964040000
  O        24.8626650000       -4.8114810000      -13.0411290000
  H        24.1735920000       -4.4054760000      -13.6710840000
  H        24.4996010000       -5.7004190000      -12.8856080000
  O        -2.2661330000       16.8183750000      -10.1660630000
  H        -3.0333100000       17.3413180000      -10.4494660000
  H        -2.6872120000       15.9129460000      -10.2233580000
  O        23.4915730000        7.9906850000       -9.4933690000
  H        23.7216150000        8.4380320000       -8.6554300000
  H        23.4186230000        7.0788510000       -9.1483730000
  O        13.8697560000        1.2334680000      -11.8348600000
  H        13.0989200000        1.7647580000      -11.6063110000
  H        14.3466630000        1.9083630000      -12.3305940000
  O        22.2374270000       -1.2981010000       -5.6266580000
  H        22.4900340000       -0.3492220000       -5.6851640000
  H        21.8712960000       -1.3423080000       -4.7291090000
  O        10.3522940000        2.7609040000        9.5748110000
  H         9.7145450000        2.3885020000       10.1689280000
  H        10.4285300000        2.1328810000        8.7611710000
  O        18.4249250000       20.7441040000      -10.5071330000
  H        19.3694570000       20.9372480000      -10.6578860000
  H        18.4136220000       20.8484420000       -9.5529150000
  O        14.1897990000       15.9031900000      -10.1774920000
  H        13.7056890000       16.1377490000      -11.0055780000
  H        14.6276570000       16.7549800000      -10.0106960000
  O        13.9710680000       11.2683260000        7.0051330000
  H        14.4377320000       10.7038830000        7.6361750000
  H        13.4532460000       10.6489870000        6.4742700000
  O        26.8517460000       17.5253430000        2.2235180000
  H        26.3012410000       17.5614110000        3.0557760000
  H        27.6907500000       17.5127790000        2.7298110000
  O         5.8569910000       -1.7291610000      -10.3814600000
  H         6.5192440000       -1.4176050000      -11.0413280000
  H         5.9163000000       -2.7176930000      -10.5340680000
  O        -2.9716780000        4.6865390000        0.2612170000
  H        -2.1712800000        4.4468650000       -0.2751070000
  H        -2.4936820000        5.1150750000        1.0045860000
  O        10.3837500000        1.9613090000        0.5289860000
  H        10.1553780000        2.5366050000        1.3072170000
  H        11.1331880000        2.4798100000        0.1932630000
  O         8.4060120000       13.7199150000       -5.8234500000
  H         8.5000980000       12.9178660000       -5.3448750000
  H         9.2163690000       14.2006960000       -5.5704450000
  O        22.4511800000       19.9016420000        9.8843840000
  H        22.6241990000       19.9269730000       10.8591070000
  H        21.8997820000       19.0533500000        9.9149770000
  O         7.2513780000       13.3367810000      -11.9379030000
  H         6.5069850000       13.9908880000      -12.0242050000
  H         6.7929300000       12.7183380000      -11.2913590000
  O        20.0361800000       14.4003090000      -10.2484970000
  H        20.6707950000       15.1385090000      -10.3563230000