#     Step Nr.          Time[fs]        Kin.[a.u.]          Temp[K]            Pot.[a.u.]    
      6600         6600.000000         3.880371388       302.773142769     -1262.621653899   
      6601         6601.000000         3.854274445       300.736880626     -1262.589792647   
      6602         6602.000000         3.858346603       301.054618256     -1262.597293155   
      6603         6603.000000         3.871763868       302.101525089     -1262.614380348   
      6604         6604.000000         3.875896221       302.423959614     -1262.633164831   
      6605         6605.000000         3.883340782       303.004835246     -1262.624147777   
      6606         6606.000000         3.886873677       303.280495838     -1262.626969133   
      6607         6607.000000         3.889656115       303.497600741     -1262.626626963   
      6608         6608.000000         3.892178459       303.694411258     -1262.641069198   
      6609         6609.000000         3.879540079       302.708278359     -1262.637189578   
      6610         6610.000000         3.872706738       302.175094312     -1262.634575624   
      6611         6611.000000         3.872055274       302.124262609     -1262.650936730   
      6612         6612.000000         3.870646916       302.014372922     -1262.618173740   
      6613         6613.000000         3.878260085       302.608404432     -1262.649345146   
      6614         6614.000000         3.892036979       303.683372065     -1262.659395878   
      6615         6615.000000         3.912004582       305.241381105     -1262.659059053   
      6616         6616.000000         3.934303397       306.981287364     -1262.681029250   
      6617         6617.000000         3.948361098       308.078165446     -1262.671376822   
      6618         6618.000000         3.957691205       308.806164279     -1262.671857958   
      6619         6619.000000         3.955613647       308.644058972     -1262.667991171   
      6620         6620.000000         3.939308278       307.371802411     -1262.657535209   
      6621         6621.000000         3.915256395       305.495109819     -1262.646209378   
      6622         6622.000000         3.889247678       303.465731695     -1262.614277457   
      6623         6623.000000         3.884712951       303.111901215     -1262.618680163   
      6624         6624.000000         3.895649640       303.965256561     -1262.633114283   
      6625         6625.000000         3.899877059       304.295108750     -1262.637569754   
      6626         6626.000000         3.903641209       304.588813484     -1262.655788636   
      6627         6627.000000         3.894731364       303.893606431     -1262.630613154   
      6628         6628.000000         3.873393829       302.228705833     -1262.618171724   
      6629         6629.000000         3.857814251       301.013080463     -1262.599483081   
      6630         6630.000000         3.838109086       299.475548646     -1262.573194335   
      6631         6631.000000         3.821723410       298.197026004     -1262.561109550   
      6632         6632.000000         3.821102971       298.148615079     -1262.568093806   
      6633         6633.000000         3.814014352       297.595512516     -1262.564475366   
      6634         6634.000000         3.814025789       297.596404902     -1262.567495086   
      6635         6635.000000         3.826672600       298.583195663     -1262.583937982   
      6636         6636.000000         3.839416161       299.577535517     -1262.601477949   
      6637         6637.000000         3.850683269       300.456672471     -1262.613446028   
      6638         6638.000000         3.856504520       300.910886318     -1262.625690854   
      6639         6639.000000         3.870497158       302.002687772     -1262.644499433   
      6640         6640.000000         3.883588062       303.024129717     -1262.654468089   
      6641         6641.000000         3.880547462       302.786881241     -1262.651272083   
      6642         6642.000000         3.873948961       302.272021047     -1262.642610727   
      6643         6643.000000         3.872542309       302.162264391     -1262.608440674   
      6644         6644.000000         3.888153079       303.380323603     -1262.624570869   
      6645         6645.000000         3.913955935       305.393639058     -1262.643029477   
      6646         6646.000000         3.930776153       306.706067666     -1262.654790817   
      6647         6647.000000         3.941294302       307.526765650     -1262.666281238   
      6648         6648.000000         3.954309492       308.542299880     -1262.700534767   
      6649         6649.000000         3.953374196       308.469321649     -1262.664339263   
      6650         6650.000000         3.937792455       307.253527574     -1262.649766105   
      6651         6651.000000         3.906684250       304.826252393     -1262.615660595   
      6652         6652.000000         3.888800973       303.430876715     -1262.608955533   
      6653         6653.000000         3.900886375       304.373862525     -1262.608053365   
      6654         6654.000000         3.906154135       304.784889194     -1262.597289534   
      6655         6655.000000         3.901411621       304.414845766     -1262.577574746   
      6656         6656.000000         3.895705849       303.969642387     -1262.572396831   
      6657         6657.000000         3.891548796       303.645280697     -1262.572730835   
      6658         6658.000000         3.889511701       303.486332568     -1262.577907500   
      6659         6659.000000         3.857874539       301.017784575     -1262.543315887   
      6660         6660.000000         3.816239196       297.769110063     -1262.506417281   
      6661         6661.000000         3.803498728       296.775011485     -1262.504353823   
      6662         6662.000000         3.798799037       296.408309486     -1262.523662223   
      6663         6663.000000         3.789933027       295.716522656     -1262.497390074   
      6664         6664.000000         3.777332485       294.733342092     -1262.485851477   
      6665         6665.000000         3.769514165       294.123303244     -1262.491850964   
      6666         6666.000000         3.785401178       295.362916754     -1262.505896916   
      6667         6667.000000         3.804212522       296.830706624     -1262.526870053   
      6668         6668.000000         3.805873246       296.960287708     -1262.527885800   
      6669         6669.000000         3.795186680       296.126448624     -1262.527803764   
      6670         6670.000000         3.792451454       295.913027588     -1262.522150334   
      6671         6671.000000         3.793352149       295.983305980     -1262.521099433   
      6672         6672.000000         3.790270393       295.742846232     -1262.522513856   
      6673         6673.000000         3.789489858       295.681943582     -1262.506927098   
      6674         6674.000000         3.810628367       297.331314753     -1262.534242694   
      6675         6675.000000         3.841099438       299.708876368     -1262.547944237   
      6676         6676.000000         3.879894991       302.735971030     -1262.560014226   
      6677         6677.000000         3.916853887       305.619757152     -1262.596507079   
      6678         6678.000000         3.927179178       306.425407015     -1262.607770669   
      6679         6679.000000         3.928019582       306.490981060     -1262.608977566   
      6680         6680.000000         3.916555964       305.596511104     -1262.582730032   
      6681         6681.000000         3.909258667       305.027126039     -1262.570230631   
      6682         6682.000000         3.921654095       305.994302175     -1262.581246276   
      6683         6683.000000         3.936205926       307.129735660     -1262.591298591   
      6684         6684.000000         3.945972487       307.891789679     -1262.596904745   
      6685         6685.000000         3.955114181       308.605087185     -1262.610221318   
      6686         6686.000000         3.960698532       309.040816480     -1262.612782661   
      6687         6687.000000         3.970802778       309.829218918     -1262.625195197   
      6688         6688.000000         3.975223496       310.174153609     -1262.590504403   
      6689         6689.000000         3.956777817       308.734895452     -1262.574629894   
      6690         6690.000000         3.945921710       307.887827707     -1262.573022013   
      6691         6691.000000         3.946661942       307.945585656     -1262.577443146   
      6692         6692.000000         3.937752973       307.250446894     -1262.560387642   
      6693         6693.000000         3.913411242       305.351138363     -1262.522023469   
      6694         6694.000000         3.887437690       303.324504052     -1262.497101714   
      6695         6695.000000         3.875139402       302.364907396     -1262.486881664   
      6696         6696.000000         3.876144268       302.443313938     -1262.490670620   
      6697         6697.000000         3.880215028       302.760942507     -1262.497503897   
      6698         6698.000000         3.877448239       302.545058676     -1262.502884763   
      6699         6699.000000         3.867682290       301.783052456     -1262.502501693   
      6700         6700.000000         3.861984727       301.338489619     -1262.498911558   
      6701         6701.000000         3.840519763       299.663646136     -1262.479147872   
      6702         6702.000000         3.804276545       296.835702093     -1262.435387561   
      6703         6703.000000         3.792011796       295.878722475     -1262.425990999   
      6704         6704.000000         3.797951946       296.342213581     -1262.439988100   
      6705         6705.000000         3.807209587       297.064558174     -1262.440693560   
      6706         6706.000000         3.815679747       297.725458058     -1262.455236594   
      6707         6707.000000         3.811078549       297.366441072     -1262.450118858   
      6708         6708.000000         3.823943945       298.370287301     -1262.477343476   
      6709         6709.000000         3.849217839       300.342329556     -1262.507952492   
      6710         6710.000000         3.838305429       299.490868609     -1262.499050563   
      6711         6711.000000         3.819539347       298.026610441     -1262.487309314   
      6712         6712.000000         3.826114652       298.539660747     -1262.492241036   
      6713         6713.000000         3.839152976       299.557000046     -1262.508125802   
      6714         6714.000000         3.842422041       299.812074897     -1262.514488750   
      6715         6715.000000         3.826890529       298.600199989     -1262.503717020   
      6716         6716.000000         3.807874027       297.116402288     -1262.473633689   
      6717         6717.000000         3.809725355       297.260855577     -1262.473350991   
      6718         6718.000000         3.827313914       298.633235382     -1262.490761424   
      6719         6719.000000         3.826455194       298.566232139     -1262.471926459   
      6720         6720.000000         3.807192024       297.063187739     -1262.452943814   
      6721         6721.000000         3.815635872       297.722034629     -1262.467160353   
      6722         6722.000000         3.851113201       300.490218695     -1262.497828777   
      6723         6723.000000         3.857805421       301.012391545     -1262.513516911   
      6724         6724.000000         3.829731553       298.821876161     -1262.480818266   
      6725         6725.000000         3.806163861       296.982963415     -1262.456295137   
      6726         6726.000000         3.831757748       298.979973730     -1262.472383315   
      6727         6727.000000         3.873758396       302.257151870     -1262.544628786   
      6728         6728.000000         3.878391144       302.618630601     -1262.557410027   
      6729         6729.000000         3.860863035       301.250967527     -1262.537896028   
      6730         6730.000000         3.874762488       302.335498006     -1262.525586794   
      6731         6731.000000         3.910587808       305.130834712     -1262.549458167   
      6732         6732.000000         3.922528278       306.062511925     -1262.552884712   
      6733         6733.000000         3.887495537       303.329017613     -1262.540393991   
      6734         6734.000000         3.850575177       300.448238406     -1262.497563918   
      6735         6735.000000         3.867661489       301.781429436     -1262.513481283   
      6736         6736.000000         3.895700907       303.969256773     -1262.542851801   
      6737         6737.000000         3.888996738       303.446151590     -1262.531635765   
      6738         6738.000000         3.868432359       301.841577983     -1262.508122279   
      6739         6739.000000         3.862611703       301.387410522     -1262.500264718   
      6740         6740.000000         3.881867965       302.889915941     -1262.520030431   
      6741         6741.000000         3.899084415       304.233261269     -1262.561736116   
      6742         6742.000000         3.880263461       302.764721531     -1262.539686316   
      6743         6743.000000         3.862235322       301.358042728     -1262.520037991   
      6744         6744.000000         3.875613204       302.401876673     -1262.537212312   
      6745         6745.000000         3.881724488       302.878720924     -1262.534199825   
      6746         6746.000000         3.857646918       301.000023997     -1262.510921678   
      6747         6747.000000         3.814857464       297.661297909     -1262.468397400   
      6748         6748.000000         3.799666169       296.475968994     -1262.455162559   
      6749         6749.000000         3.801645633       296.630420394     -1262.460824162   
      6750         6750.000000         3.785030411       295.333986949     -1262.446451384   
      6751         6751.000000         3.767583524       293.972661374     -1262.434877173   
      6752         6752.000000         3.774434563       294.507226390     -1262.443144927   
      6753         6753.000000         3.798289273       296.368534144     -1262.479366418   
      6754         6754.000000         3.807929909       297.120762640     -1262.491354671   
      6755         6755.000000         3.789198996       295.659248534     -1262.476533157   
      6756         6756.000000         3.772344957       294.344181000     -1262.463937058   
      6757         6757.000000         3.777144731       294.718692214     -1262.459413819   
      6758         6758.000000         3.791893646       295.869503608     -1262.435142201   
      6759         6759.000000         3.805638112       296.941940882     -1262.447830330   
      6760         6760.000000         3.802746401       296.716309808     -1262.439090785   
      6761         6761.000000         3.810380313       297.311959927     -1262.438077600   
      6762         6762.000000         3.839384845       299.575092063     -1262.474620427   
      6763         6763.000000         3.849778362       300.386065436     -1262.478944277   
      6764         6764.000000         3.847262100       300.189729444     -1262.473595130   
      6765         6765.000000         3.849468935       300.361921838     -1262.478215923   
      6766         6766.000000         3.866841130       301.717419437     -1262.488562159   
      6767         6767.000000         3.897498373       304.109507360     -1262.520872894   
      6768         6768.000000         3.905911384       304.765948147     -1262.526785580   
      6769         6769.000000         3.879971633       302.741951107     -1262.497661440   
      6770         6770.000000         3.865160385       301.586276139     -1262.481214131   
      6771         6771.000000         3.861277680       301.283320944     -1262.483371120   
      6772         6772.000000         3.852518535       300.599872490     -1262.479069199   
      6773         6773.000000         3.847713734       300.224969031     -1262.477214908   
      6774         6774.000000         3.852036119       300.562231085     -1262.477860481   
      6775         6775.000000         3.862155598       301.351822130     -1262.488461739   
      6776         6776.000000         3.873550674       302.240943950     -1262.503690650   
      6777         6777.000000         3.860702212       301.238418966     -1262.497568244   
      6778         6778.000000         3.840560038       299.666788642     -1262.484332055   
      6779         6779.000000         3.818390616       297.936978559     -1262.470594467   
      6780         6780.000000         3.809813303       297.267717888     -1262.475111896   
      6781         6781.000000         3.800149199       296.513658321     -1262.468943856   
      6782         6782.000000         3.790805608       295.784607420     -1262.459114201   
      6783         6783.000000         3.797160657       296.280471856     -1262.469360629   
      6784         6784.000000         3.805882358       296.960998623     -1262.486025825   
      6785         6785.000000         3.814625806       297.643222308     -1262.495881524   
      6786         6786.000000         3.823978119       298.372953784     -1262.511171291   
      6787         6787.000000         3.828186090       298.701288503     -1262.522026069   
      6788         6788.000000         3.842657165       299.830420855     -1262.535414577   
      6789         6789.000000         3.849978829       300.401707238     -1262.539668933   
      6790         6790.000000         3.839310269       299.569273137     -1262.504264390   
      6791         6791.000000         3.838933112       299.539844755     -1262.491228797   
      6792         6792.000000         3.848146315       300.258721944     -1262.502963240   
      6793         6793.000000         3.853795396       300.699501953     -1262.499047863   
      6794         6794.000000         3.856687800       300.925187092     -1262.495772741   
      6795         6795.000000         3.849505123       300.364745420     -1262.482522069   
      6796         6796.000000         3.854338308       300.741863657     -1262.485737450   
      6797         6797.000000         3.883139459       302.989126609     -1262.517180654   
      6798         6798.000000         3.893056771       303.762943206     -1262.525740861   
      6799         6799.000000         3.881645088       302.872525565     -1262.510461529   
      6800         6800.000000         3.866224012       301.669267665     -1262.494837283   
      6801         6801.000000         3.858713517       301.083247366     -1262.499683737   
      6802         6802.000000         3.860884667       301.252655385     -1262.503065784   
      6803         6803.000000         3.864258604       301.515913022     -1262.505389382   
      6804         6804.000000         3.868659313       301.859286454     -1262.512881977   
      6805         6805.000000         3.880556687       302.787601038     -1262.524991427   
      6806         6806.000000         3.914774178       305.457483975     -1262.564182673   
      6807         6807.000000         3.939831827       307.412653317     -1262.583350658   
      6808         6808.000000         3.928639472       306.539349142     -1262.569505167   
      6809         6809.000000         3.922211802       306.037818349     -1262.570411995   
      6810         6810.000000         3.932986799       306.878557357     -1262.584863124   
      6811         6811.000000         3.937678892       307.244666618     -1262.589921414   
      6812         6812.000000         3.940323792       307.451039800     -1262.600877516   
      6813         6813.000000         3.933594926       306.926007629     -1262.594787875   
      6814         6814.000000         3.930530962       306.686936177     -1262.590648061   
      6815         6815.000000         3.941000058       307.503806693     -1262.602509435   
      6816         6816.000000         3.933561159       306.923372890     -1262.595716819   
      6817         6817.000000         3.912799057       305.303371498     -1262.568723855   
      6818         6818.000000         3.908964384       305.004164073     -1262.565606822   
      6819         6819.000000         3.915082495       305.481540979     -1262.570587361   
      6820         6820.000000         3.915805533       305.537957356     -1262.563719890   
      6821         6821.000000         3.909117156       305.016084400     -1262.557941412   
      6822         6822.000000         3.896378555       304.022131556     -1262.542310036   
      6823         6823.000000         3.890827270       303.588982285     -1262.538775953   
      6824         6824.000000         3.894022204       303.838272878     -1262.543330481   
      6825         6825.000000         3.878515127       302.628304566     -1262.529031685   
      6826         6826.000000         3.856506366       300.911030326     -1262.503663658   
      6827         6827.000000         3.850040219       300.406497306     -1262.497316347   
      6828         6828.000000         3.857745660       301.007728568     -1262.507303236   
      6829         6829.000000         3.854406059       300.747150005     -1262.503281693   
      6830         6830.000000         3.840568025       299.667411836     -1262.486098900   
      6831         6831.000000         3.831582451       298.966295831     -1262.473775697   
      6832         6832.000000         3.832557140       299.042347787     -1262.477217913   
      6833         6833.000000         3.842435289       299.813108610     -1262.489192798   
      6834         6834.000000         3.838370958       299.495981625     -1262.483040640   
      6835         6835.000000         3.832687623       299.052528979     -1262.480350547   
      6836         6836.000000         3.848658295       300.298670138     -1262.493718599   
      6837         6837.000000         3.857012210       300.950499801     -1262.497475757   
      6838         6838.000000         3.858690487       301.081450416     -1262.499087834   
      6839         6839.000000         3.861447518       301.296572884     -1262.504864557   
      6840         6840.000000         3.859831215       301.170457850     -1262.502935907   
      6841         6841.000000         3.866649447       301.702462965     -1262.511140363   
      6842         6842.000000         3.884893659       303.126001302     -1262.538500166   
      6843         6843.000000         3.889968377       303.521965527     -1262.543955354   
      6844         6844.000000         3.889183949       303.460759086     -1262.550892589   
      6845         6845.000000         3.896003145       303.992839486     -1262.561935289   
      6846         6846.000000         3.909746299       305.065174475     -1262.570710598   
      6847         6847.000000         3.919238029       305.805784218     -1262.585204888   
      6848         6848.000000         3.912896075       305.310941548     -1262.581747210   
      6849         6849.000000         3.904357864       304.644731886     -1262.575687026   
      6850         6850.000000         3.903469204       304.575392487     -1262.581680394   
      6851         6851.000000         3.901773719       304.443099164     -1262.584906733   
      6852         6852.000000         3.891722874       303.658863430     -1262.580709994   
      6853         6853.000000         3.876413392       302.464312830     -1262.565952563   
      6854         6854.000000         3.864206737       301.511866003     -1262.557805573   
      6855         6855.000000         3.856387310       300.901740790     -1262.554694095   
      6856         6856.000000         3.846415376       300.123662248     -1262.546931532   
      6857         6857.000000         3.831881893       298.989660387     -1262.535403690   
      6858         6858.000000         3.810018172       297.283703179     -1262.511595167   
      6859         6859.000000         3.797418160       296.300564011     -1262.497613587   
      6860         6860.000000         3.811120143       297.369686518     -1262.510187979   
      6861         6861.000000         3.822694576       298.272803036     -1262.523336414   
      6862         6862.000000         3.821909540       298.211549092     -1262.517026979   
      6863         6863.000000         3.824352089       298.402133517     -1262.513631492   
      6864         6864.000000         3.833970730       299.152645721     -1262.515674570   
      6865         6865.000000         3.845954520       300.087703067     -1262.518435185   
      6866         6866.000000         3.838860638       299.534189881     -1262.504367993   
      6867         6867.000000         3.819194117       297.999673211     -1262.476493943   
      6868         6868.000000         3.817507564       297.868076846     -1262.470018032   
      6869         6869.000000         3.831610243       298.968464380     -1262.479065907   
      6870         6870.000000         3.842325626       299.804551930     -1262.485374696   
      6871         6871.000000         3.856002633       300.871725668     -1262.500214991   
      6872         6872.000000         3.865206487       301.589873371     -1262.508776111   
      6873         6873.000000         3.875665307       302.405942108     -1262.515856664   
      6874         6874.000000         3.888570505       303.412894046     -1262.532387095   
      6875         6875.000000         3.890536495       303.566294012     -1262.540805173   
      6876         6876.000000         3.878141136       302.599123245     -1262.534344623   
      6877         6877.000000         3.860150510       301.195371389     -1262.523350188   
      6878         6878.000000         3.850944627       300.477065404     -1262.524208523   
      6879         6879.000000         3.846344245       300.118112068     -1262.525794693   
      6880         6880.000000         3.844905562       300.005856231     -1262.530017962   
      6881         6881.000000         3.832557229       299.042354745     -1262.527600934   
      6882         6882.000000         3.810911105       297.353375914     -1262.510410446   
      6883         6883.000000         3.809964867       297.279543997     -1262.515247916   
      6884         6884.000000         3.829406462       298.796510309     -1262.545511461   
      6885         6885.000000         3.823759534       298.355898305     -1262.544721984   
      6886         6886.000000         3.786550234       295.452573961     -1262.507863115   
      6887         6887.000000         3.751995954       292.756412457     -1262.473622048   
      6888         6888.000000         3.740061878       291.825234173     -1262.461480976   
      6889         6889.000000         3.758099354       293.232641514     -1262.477909094   
      6890         6890.000000         3.778561630       294.829248371     -1262.498003847   
      6891         6891.000000         3.785207814       295.347829154     -1262.485108978   
      6892         6892.000000         3.807652556       297.099121598     -1262.497758321   
      6893         6893.000000         3.851166426       300.494371644     -1262.532930690   
      6894         6894.000000         3.888160093       303.380870883     -1262.564689722   
      6895         6895.000000         3.889802539       303.509025717     -1262.564535469   
      6896         6896.000000         3.859814113       301.169123447     -1262.525676405   
      6897         6897.000000         3.837055945       299.393375355     -1262.489792202   
      6898         6898.000000         3.848940127       300.320660551     -1262.498289477   
      6899         6899.000000         3.871939690       302.115243964     -1262.528758561   
      6900         6900.000000         3.862734736       301.397010461     -1262.514495674   
      6901         6901.000000         3.827488873       298.646886851     -1262.476914886   
      6902         6902.000000         3.822422031       298.251537182     -1262.476914103   
      6903         6903.000000         3.847622016       300.217812543     -1262.513372627   
      6904         6904.000000         3.853344627       300.664329802     -1262.526423047   
      6905         6905.000000         3.820703591       298.117452694     -1262.502148745   
      6906         6906.000000         3.785754333       295.390472372     -1262.471531657   
      6907         6907.000000         3.781356659       295.047335686     -1262.474636251   
      6908         6908.000000         3.795930197       296.184462890     -1262.506854674   
      6909         6909.000000         3.780868094       295.009214549     -1262.502989433   
      6910         6910.000000         3.737487852       291.624391029     -1262.467383743   
      6911         6911.000000         3.711264566       289.578270749     -1262.448323649   
      6912         6912.000000         3.730530181       291.081505915     -1262.478537086   
      6913         6913.000000         3.765395752       293.801956434     -1262.527749386   
      6914         6914.000000         3.768143486       294.016353458     -1262.534374545   
      6915         6915.000000         3.742521737       292.017169224     -1262.505370199   
      6916         6916.000000         3.730975114       291.116222629     -1262.495215629   
      6917         6917.000000         3.742637914       292.026234099     -1262.520568584   