#     Step Nr.          Time[fs]        Kin.[a.u.]          Temp[K]            Pot.[a.u.]        Cons Qty[a.u.]        UsedTime[s]
         0            0.000000         3.843405441       300.000000000     -1423.630990385     -1419.787109922         0.000000000
         1            1.000000         3.676455786       286.968614881     -1423.415438302     -1419.737675481        50.779433186
         2            2.000000         3.583925580       279.746097662     -1423.377007757     -1419.791001529        13.039824873
         3            3.000000         3.652401434       285.091033668     -1423.461543127     -1419.806335230        13.034120971
         4            4.000000         3.660109312       285.692678112     -1423.437498806     -1419.773887202        13.061000003
         5            5.000000         3.783847655       295.351170667     -1423.597132767     -1419.809107181        12.369754259
         6            6.000000         3.695732207       288.473250844     -1423.481806060     -1419.781233535        12.389336242
         7            7.000000         3.659068002       285.611397884     -1423.411070294     -1419.746537562        12.331260402
         8            8.000000         3.851317360       300.617570962     -1423.734693415     -1419.877304141        13.078680528
         9            9.000000         3.767113400       294.044965417     -1423.660257627     -1419.886461375        13.055923169
        10           10.000000         3.689830989       288.012626750     -1423.541887363     -1419.844789936        13.027230549
        11           11.000000         3.661789100       285.823795296     -1423.511834038     -1419.842231169        13.031382815
        12           12.000000         3.653549753       285.180666600     -1423.454856994     -1419.792982733        13.043316196
        13           13.000000         3.886994825       303.402403203     -1423.768203160     -1419.872388552        13.090769632
        14           14.000000         3.859849553       301.283557932     -1423.722178797     -1419.852998023        13.070754905
        15           15.000000         3.741287678       292.029118558     -1423.582515395     -1419.831393335        13.066157320
        16           16.000000         3.832902455       299.180181244     -1423.720175850     -1419.876952304        12.391611677
        17           17.000000         3.778210892       294.911188735     -1423.633719558     -1419.844703782        13.081211962
        18           18.000000         3.772643890       294.476652124     -1423.642668831     -1419.858751313        13.016745876
        19           19.000000         3.699548383       288.771125440     -1423.570869896     -1419.859598966        13.071689764
        20           20.000000         3.590765526       280.279994992     -1423.453352300     -1419.850453866        13.722200166
        21           21.000000         3.833439602       299.222108650     -1423.753858167     -1419.907908005        13.761775467
        22           22.000000         3.906268639       304.906835743     -1423.818746585     -1419.899579303        13.698291437
        23           23.000000         3.805495224       297.040888542     -1423.656118993     -1419.837329735        13.046000623
        24           24.000000         3.785773745       295.501513114     -1423.664451411     -1419.864999389        13.005076194
        25           25.000000         3.699208736       288.744614014     -1423.538620379     -1419.825366793        13.050258295
        26           26.000000         3.823102947       298.415273013     -1423.579208998     -1419.741715471        12.389322490
        27           27.000000         3.842561841       299.934152087     -1423.611267420     -1419.753968733        13.067232633
        28           28.000000         3.678201271       287.104860011     -1423.389993648     -1419.696719830        13.058462926
        29           29.000000         3.814007055       297.705286113     -1423.561269975     -1419.731880453        12.373090004
        30           30.000000         3.903134322       304.662184182     -1423.650441220     -1419.731611614        13.023309371
        31           31.000000         3.911526717       305.317259126     -1423.597297735     -1419.669748267        13.039921474
        32           32.000000         3.879032205       302.780874767     -1423.591609069     -1419.696214232        13.004961965
        33           33.000000         3.663878465       285.986882288     -1423.331040088     -1419.650466604        12.392948784
        34           34.000000         3.757365387       293.284076688     -1423.512115744     -1419.737755015        12.340326420
        35           35.000000         3.890154835       303.649060248     -1423.607401023     -1419.699956762        12.392961277
        36           36.000000         3.779313512       294.997254610     -1423.464968439     -1419.668066598        13.043374953
        37           37.000000         3.778891535       294.964316885     -1423.533880461     -1419.737115208        12.324095061
        38           38.000000         3.732667872       291.356292893     -1423.463834664     -1419.713022438        12.336664303
        39           39.000000         3.781409278       295.160841242     -1423.509269898     -1419.709464224        12.345777621
        40           40.000000         3.824100108       298.493107220     -1423.589445220     -1419.746705323        13.068122137
        41           41.000000         3.578135345       279.294136371     -1423.256458767     -1419.659456512        13.041659489
        42           42.000000         3.588293877       280.087068473     -1423.288342212     -1419.681004672        12.402001746
        43           43.000000         3.747409190       292.506937943     -1423.434860942     -1419.668271977        12.378085390
        44           44.000000         3.796138474       296.310540121     -1423.505746172     -1419.690308935        13.024423394
        45           45.000000         3.857009243       301.061855281     -1423.600417364     -1419.723997354        13.013401419
        46           46.000000         3.704741728       289.176496015     -1423.413559077     -1419.689298038        12.352402592
        47           47.000000         3.700611656       288.854120091     -1423.405213925     -1419.684999526        12.335978377
        48           48.000000         3.863604994       301.576691748     -1423.574925619     -1419.691656458        12.318322067
        49           49.000000         3.742101773       292.092663421     -1423.398647098     -1419.636822115        13.037354893
        50           50.000000         3.702122915       288.972082550     -1423.395013618     -1419.673127158        13.043590632
        51           51.000000         3.746486953       292.434952020     -1423.447562147     -1419.681296581        13.089094469
        52           52.000000         3.816364535       297.889300999     -1423.480682901     -1419.644542873        12.360579246
        53           53.000000         3.990319257       311.467472084     -1423.700896798     -1419.690808048        12.346275781
        54           54.000000         3.841897853       299.882323980     -1423.554230222     -1419.692547287        13.058144196
        55           55.000000         3.715613658       290.025113024     -1423.410603424     -1419.675189195        12.374665083
        56           56.000000         3.809108959       297.322961370     -1423.614748491     -1419.785843257        13.037567512
        57           57.000000         3.775270488       294.681673222     -1423.512768596     -1419.717716056        13.040837971
        58           58.000000         3.790873128       295.899549433     -1423.543801664     -1419.733172984        13.078649381
        59           59.000000         3.721644632       290.495865329     -1423.466847686     -1419.725486272        13.030768898
        60           60.000000         3.680078116       287.251358644     -1423.393757308     -1419.694023639        12.324415634
        61           61.000000         3.883536948       303.132495915     -1423.616137424     -1419.713034137        12.342433117
        62           62.000000         3.816484416       297.898658412     -1423.551781152     -1419.715820359        13.019598013
        63           63.000000         3.671207187       286.558931375     -1423.394454940     -1419.703866400        13.050145080
        64           64.000000         3.688094285       287.877066914     -1423.440400851     -1419.733048417        12.368689912
        65           65.000000         3.683589062       287.525408224     -1423.461988146     -1419.759295426        13.045156636
        66           66.000000         3.831345601       299.058659793     -1423.606680320     -1419.756417190        13.025343914
        67           67.000000         3.802492529       296.806510849     -1423.599223338     -1419.778010207        13.026803162
        68           68.000000         3.662110748       285.848901740     -1423.416017441     -1419.735390416        13.093989766
        69           69.000000         3.804637311       296.973923448     -1423.605767593     -1419.782848334        12.386210959
        70           70.000000         3.837844088       299.565904267     -1423.568149781     -1419.712275494        12.348834277
        71           71.000000         3.797800232       296.440249946     -1423.521056836     -1419.705482498        12.410506079
        72           72.000000         3.755668198       293.151601249     -1423.472987887     -1419.699809642        12.365894612
        73           73.000000         3.667007250       286.231102059     -1423.341720768     -1419.657482792        12.344151477
        74           74.000000         3.868152298       301.931635144     -1423.593693905     -1419.708624190        12.386106763
        75           75.000000         3.954248647       308.651952591     -1423.719169208     -1419.748328455        12.360632524
        76           76.000000         3.809129073       297.324531411     -1423.596282036     -1419.770869488        12.419925564
        77           77.000000         3.812560954       297.592409593     -1423.632203704     -1419.803667597        12.363175454
        78           78.000000         3.787371280       295.626209951     -1423.587824118     -1419.784794253        13.064233317
        79           79.000000         3.852749210       300.729335096     -1423.663584330     -1419.795506157        12.369989539
        80           80.000000         3.873320074       302.335009872     -1423.614527634     -1419.726213753        12.366329639
        81           81.000000         3.695192091       288.431091689     -1423.378234470     -1419.668378393        12.371330727
        82           82.000000         3.799317514       296.558682540     -1423.514596045     -1419.700966033        12.367487291
        83           83.000000         3.924683576       306.344227954     -1423.654919831     -1419.716297273        12.332389794
        84           84.000000         3.882222177       303.029870504     -1423.596779430     -1419.700986661        12.371754130
        85           85.000000         3.851399781       300.624004426     -1423.591129269     -1419.726518765        12.348752421
        86           86.000000         3.706783546       289.335871699     -1423.394872305     -1419.675233911        12.355604352
        87           87.000000         3.777815341       294.880313682     -1423.478631646     -1419.688338525        12.373023954
        88           88.000000         3.916489957       305.704668714     -1423.657094044     -1419.728528849        12.337094088
        89           89.000000         3.780960556       295.125815893     -1423.462282808     -1419.669645529        12.325253539
        90           90.000000         3.780760177       295.110175148     -1423.512546760     -1419.720513940        12.370854885
        91           91.000000         3.827288493       298.741979054     -1423.564168934     -1419.726029461        12.342591311
        92           92.000000         3.851366952       300.621441924     -1423.540123917     -1419.678339380        12.345681233
        93           93.000000         3.900998944       304.495505628     -1423.697088632     -1419.786111599        13.058744483
        94           94.000000         3.698673430       288.702830300     -1423.452601120     -1419.744379360        13.023670868
        95           95.000000         3.666449019       286.187528833     -1423.411286717     -1419.735733787        13.028941653
        96           96.000000         3.838078036       299.584165224     -1423.624554876     -1419.777860210        13.109170146
        97           97.000000         3.828471251       298.834300175     -1423.581559546     -1419.744980017        13.045907379
        98           98.000000         3.832919466       299.181509015     -1423.587805757     -1419.747293906        12.367963900
        99           99.000000         3.761146001       293.579175405     -1423.501204897     -1419.732987145        12.355703648
       100          100.000000         3.756432612       293.211268209     -1423.425828018     -1419.662859050        12.359144205
       101          101.000000         3.912646681       305.404678813     -1423.621316538     -1419.702699011        13.015705800
       102          102.000000         3.804468436       296.960741737     -1423.505992670     -1419.696121260        13.037330388
       103          103.000000         3.719509717       290.329222869     -1423.404457129     -1419.680111204        13.030559262
       104          104.000000         3.793600473       296.112434477     -1423.461569056     -1419.663725177        12.369944349
       105          105.000000         3.834168210       299.278980722     -1423.476569502     -1419.638777249        12.343402850
       106          106.000000         3.939421390       307.494599489     -1423.653573418     -1419.711166590        12.341367511
       107          107.000000         3.822016836       298.330495767     -1423.516984193     -1419.692613011        12.360593836
       108          108.000000         3.691884406       288.172907805     -1423.360255776     -1419.666639478        12.335827079
       109          109.000000         3.827320643       298.744488575     -1423.546054691     -1419.717655865        12.379703287
       110          110.000000         3.814930420       297.777360086     -1423.456273370     -1419.640943868        12.386761553
       111          111.000000         3.781049213       295.132736097     -1423.330013196     -1419.549254156        12.362765316
       112          112.000000         3.765919545       293.951778093     -1423.356974269     -1419.592049847        12.348092781
       113          113.000000         3.719672076       290.341895952     -1423.274621138     -1419.556667846        12.357590777
       114          114.000000         3.874411277       302.420184644     -1423.525632110     -1419.653702562        12.341668582
       115          115.000000         3.841484990       299.850097683     -1423.484171940     -1419.645951872        12.368824778
       116          116.000000         3.673913463       286.770171871     -1423.276668995     -1419.606796371        12.339547622
       117          117.000000         3.724804822       290.742536424     -1423.358147678     -1419.638184939        12.352970025
       118          118.000000         3.768400388       294.145422216     -1423.405535495     -1419.642822404        12.369361413
       119          119.000000         3.850375542       300.544056641     -1423.460400702     -1419.616596836        12.387050584
       120          120.000000         3.833874806       299.256078880     -1423.452628602     -1419.626229935        12.359794574
       121          121.000000         3.695936574       288.489202927     -1423.270015223     -1419.582457259        12.341548977
       122          122.000000         3.816695181       297.915109852     -1423.429287233     -1419.621905647        12.351748207
       123          123.000000         3.871905236       302.224573644     -1423.488001835     -1419.626386499        12.372929486
       124          124.000000         3.787611447       295.644956384     -1423.377484934     -1419.601146434        12.355182720
       125          125.000000         3.767254923       294.056012048     -1423.324821373     -1419.569831208        12.329564963
       126          126.000000         3.704373731       289.147771720     -1423.228255103     -1419.537155802        12.349958228
       127          127.000000         3.843881510       300.037159913     -1423.412866083     -1419.583315175        12.366482807
       128          128.000000         3.930726149       306.815885708     -1423.513847153     -1419.598554972        13.051401563
       129          129.000000         3.765692524       293.934057825     -1423.289698465     -1419.540535266        13.004442828
       130          130.000000         3.785675416       295.493838011     -1423.377053634     -1419.609007342        12.384555157
       131          131.000000         3.841414910       299.844627499     -1423.438815416     -1419.616165818        12.352813650
       132          132.000000         3.871208997       302.170228112     -1423.458967776     -1419.607689252        12.342719180
       133          133.000000         3.895256837       304.047301017     -1423.508158450     -1419.634015366        12.381693838
       134          134.000000         3.747374553       292.504234378     -1423.316348423     -1419.591261203        12.387868872
       135          135.000000         3.807614296       297.206294291     -1423.378468250     -1419.594330674        12.408719299
       136          136.000000         3.958387269       308.974995921     -1423.580589192     -1419.646922287        12.352654725
       137          137.000000         3.888064371       303.485887468     -1423.446426412     -1419.584337404        12.362702328
       138          138.000000         3.849087807       300.443541480     -1423.424774417     -1419.602905765        13.062358793
       139          139.000000         3.805082734       297.008691311     -1423.377715440     -1419.601097277        12.333887114
       140          140.000000         3.880513470       302.896495992     -1423.444664420     -1419.593887022        12.336940234
       141          141.000000         4.024607647       314.143879046     -1423.627894631     -1419.634338230        12.353000295
       142          142.000000         3.886228532       303.342589598     -1423.392133411     -1419.538258970        12.329782182
       143          143.000000         3.829471616       298.912384396     -1423.369594717     -1419.573753330        12.351947344
       144          144.000000         3.910748025       305.256477719     -1423.482319781     -1419.606497819        13.047520083
       145          145.000000         3.938115180       307.392642296     -1423.488414749     -1419.586543781        13.020442528
       146          146.000000         3.992475536       311.635782120     -1423.569293585     -1419.614390492        12.347291681
       147          147.000000         3.863005245       301.529877892     -1423.525416278     -1419.701289635        13.033551164
       148          148.000000         3.818594579       298.063368848     -1423.447440723     -1419.669011723        13.022455530
       149          149.000000         3.996275743       311.932410275     -1423.642989490     -1419.688204238        13.040249788
       150          150.000000         3.976109274       310.358300846     -1423.613340235     -1419.680062909        12.325693243
       151          151.000000         3.907139344       304.974799310     -1423.543075781     -1419.680084869        12.370985528
       152          152.000000         3.852241214       300.689683138     -1423.461407081     -1419.654612444        12.306901624
       153          153.000000         3.832749608       299.168250612     -1423.419502416     -1419.633497878        12.314919379
       154          154.000000         3.976380482       310.379470183     -1423.584283448     -1419.655981310        12.330325020
       155          155.000000         3.915531570       305.629861025     -1423.498896060     -1419.632784040        13.003622567
       156          156.000000         3.792900891       296.057828043     -1423.319512354     -1419.577343381        12.366665955
       157          157.000000         3.849726201       300.493371820     -1423.399822907     -1419.602150679        12.314165507
       158          158.000000         3.858890944       301.208732951     -1423.387798153     -1419.582309998        12.371010421
       159          159.000000         3.893003607       303.871423412     -1423.476044398     -1419.637811774        12.375107413
       160          160.000000         3.816889795       297.930300600     -1423.402248242     -1419.641498413        12.317764698
       161          161.000000         3.710004886       289.587315918     -1423.261208146     -1419.608700644        12.317756088
       162          162.000000         3.856349646       301.010369943     -1423.414176107     -1419.616723954        12.321629916
       163          163.000000         3.893444615       303.905846613     -1423.367180195     -1419.534082940        12.343410327
       164          164.000000         3.820159644       298.185531235     -1423.278282415     -1419.519921536        12.319327698
       165          165.000000         3.798604548       296.503031414     -1423.267677005     -1419.532323481        12.318351822
       166          166.000000         3.744628904       292.289920542     -1423.184905756     -1419.504990504        12.299443884
       167          167.000000         3.841187202       299.826853631     -1423.304230289     -1419.529258894        12.338115016
       168          168.000000         3.861953836       301.447809374     -1423.334355057     -1419.540160279        12.327406189
       169          169.000000         3.735126852       291.548230548     -1423.201099515     -1419.535268830        12.340031651
       170          170.000000         3.798927717       296.528256657     -1423.287714648     -1419.559639212        12.289903916
       171          171.000000         3.859036439       301.220089655     -1423.354492823     -1419.567914549        12.330406548
       172          172.000000         3.887696970       303.457209742     -1423.368079565     -1419.554478115        12.302654256
       173          173.000000         3.881691527       302.988450152     -1423.420310120     -1419.614363177        12.997430687
       174          174.000000         3.744996838       292.318639957     -1423.289774616     -1419.622151111        12.334946498
       175          175.000000         3.807086292       297.165080523     -1423.388984723     -1419.660913244        12.303026912
       176          176.000000         3.898218998       304.278514811     -1423.490303635     -1419.672794930        12.330682441
       177          177.000000         3.846708706       300.257838877     -1423.417192766     -1419.652904959        12.310775426
       178          178.000000         3.874202396       302.403880200     -1423.501405332     -1419.711339984        12.298862291
       179          179.000000         3.857040681       301.064309210     -1423.461381202     -1419.690204034        12.298396166
       180          180.000000         3.895001653       304.027382378     -1423.505759227     -1419.698360799        13.001714857
       181          181.000000         3.942226210       307.713531926     -1423.627495785     -1419.774633282        12.976591490
       182          182.000000         3.804688502       296.977919213     -1423.445201472     -1419.731613368        13.005107026
       183          183.000000         3.807661224       297.209957326     -1423.546332320     -1419.831493360        13.691504786
       184          184.000000         3.888401905       303.512233930     -1423.665107767     -1419.871285023        13.644784131
       185          185.000000         3.899795763       304.401590385     -1423.665740849     -1419.862305322        13.023922612
       186          186.000000         3.942488370       307.733995010     -1423.696808896     -1419.852471962        13.652778173
       187          187.000000         3.863777962       301.590192939     -1423.601684974     -1419.837833858        13.647573781
       188          188.000000         3.874454414       302.423551714     -1423.553166477     -1419.780401327        12.961697342
       189          189.000000         3.972580476       310.082857739     -1423.667378397     -1419.798274235        13.007223860
       190          190.000000         3.882393353       303.043231789     -1423.514806592     -1419.737664767        12.975070947
       191          191.000000         3.862016948       301.452735649     -1423.501030247     -1419.746012635        12.988679336
       192          192.000000         3.897633141       304.232785274     -1423.541290422     -1419.752409421        13.019529386
       193          193.000000         3.935826727       307.214015307     -1423.576402199     -1419.751092228        12.960804133
       194          194.000000         4.033242672       314.817892642     -1423.706219268     -1419.785273576        12.980010984
       195          195.000000         3.940323837       307.565040716     -1423.587717210     -1419.761442522        12.306995506
       196          196.000000         3.876336012       302.570421323     -1423.522641489     -1419.762056404        12.304092367
       197          197.000000         3.956245759       308.807838700     -1423.629582467     -1419.790786570        12.983491149
       198          198.000000         3.933953719       307.067816250     -1423.550780177     -1419.735970913        12.995207313
       199          199.000000         3.942937419       307.769045922     -1423.567556227     -1419.745438800        12.960965083
       200          200.000000         3.927080176       306.531296474     -1423.549466459     -1419.744863334        13.033927860
       201          201.000000         3.921598151       306.103392726     -1423.535109983     -1419.737626359        13.054483466
       202          202.000000         4.049914601       316.119233041     -1423.779372889     -1419.855217995        12.992735766
       203          203.000000         4.001908606       312.372087754     -1423.701982522     -1419.827458380        13.655891233
       204          204.000000         3.907862660       305.031258283     -1423.577089240     -1419.798176775        13.666954171
       205          205.000000         3.919061290       305.905376099     -1423.549068920     -1419.760491983        13.003501934
       206          206.000000         3.919715377       305.956431321     -1423.529792658     -1419.742083340        12.981131650
       207          207.000000         4.006081029       312.697769510     -1423.616649959     -1419.744095642        12.806861915
       208          208.000000         3.978476115       310.543046416     -1423.572081391     -1419.728632947        12.806572317
       209          209.000000         3.898240553       304.280197295     -1423.406269398     -1419.644510394        12.814044015
       210          210.000000         3.987585962       311.254122600     -1423.549469742     -1419.699804423        12.765919165
       211          211.000000         3.979455946       310.619527942     -1423.529773895     -1419.689664219        12.798380494
       212          212.000000         3.919883290       305.969537942     -1423.461465184     -1419.682313875        12.788548109
       213          213.000000         3.882409082       303.044459501     -1423.438452985     -1419.698127079        12.130208032
       214          214.000000         3.828878228       298.866067099     -1423.280177796     -1419.594709202        12.155766335
       215          215.000000         3.962883224       309.325931221     -1423.426284159     -1419.608147242        12.805711655
       216          216.000000         4.015980717       313.470497342     -1423.490096304     -1419.620205985        12.145943333
       217          217.000000         3.911415495       305.308577632     -1423.352892132     -1419.588868961        12.103964154
       218          218.000000         3.917051176       305.748475092     -1423.376968363     -1419.608576234        12.085606100
       219          219.000000         3.907693770       305.018075512     -1423.354078648     -1419.596293110        12.160585784
       220          220.000000         3.944975809       307.928154048     -1423.394059062     -1419.600228313        12.131946140
       221          221.000000         3.966740449       309.627009883     -1423.429768962     -1419.615396616        12.133098911
       222          222.000000         3.880755670       302.915401139     -1423.304870467     -1419.577671011        12.171509941
       223          223.000000         3.961026045       309.180967701     -1423.411785363     -1419.605488096        12.117444435
       224          224.000000         4.048894554       316.039612425     -1423.521191288     -1419.628195609        12.806957979
       225          225.000000         4.021545722       313.904878131     -1423.467254040     -1419.602743254        12.166059783
       226          226.000000         4.008918854       312.919278117     -1423.454045970     -1419.603252001        12.137408666
       227          227.000000         3.938710935       307.439144378     -1423.359352605     -1419.579809767        12.124903567