    2698
 i =        0, time =        0.000, E =     -1423.6309903855
  C        12.5943080000       13.8417030000        9.8825240000
  O        13.4333380000       13.3653780000       10.7143550000
  O        12.9954830000       14.2456520000        8.7292700000
  N        11.3217940000       13.9663060000       10.3112900000
  H        10.5909020000       14.4254350000        9.6795650000
  H        11.2404030000       13.9968910000       11.3588800000
  H        14.3753830000       12.5821580000       10.1184830000
  O        25.4650570000       19.2583480000        3.7348090000
  H        24.6131360000       19.1045890000        4.1919710000
  H        25.5991340000       20.2209890000        3.8325370000
  O         5.7878080000       16.8010410000        0.0233340000
  H         5.5151780000       17.4811250000        0.6896020000
  H         6.3145080000       17.4149440000       -0.6196080000
  O        -0.2872410000        8.5585040000       -9.8318920000
  H         0.0099880000        8.2865080000       -8.9197270000
  H        -0.3198760000        9.5182640000       -9.6639810000
  O        23.9936280000       20.7445090000       -7.1596710000
  H        23.0497400000       20.7523290000       -6.7660800000
  H        24.5036180000       20.8944170000       -6.3162360000
  O        23.1605010000        7.8565470000        9.5377830000
  H        23.0603220000        8.4625800000       10.2421120000
  H        22.2681370000        7.9772990000        9.1052580000
  O        14.0626840000       -4.9273280000        8.4792270000
  H        14.4837720000       -4.0284530000        8.5077150000
  H        13.1518260000       -4.7795440000        8.6811020000
  O        -4.0218940000       22.6196560000       -6.0362800000
  H        -4.5658760000       22.2947940000       -6.8077000000
  H        -4.7413800000       22.7074410000       -5.4088660000
  O        -4.7524710000        9.3556500000        0.5367090000
  H        -5.2935580000        9.9522790000       -0.0391910000
  H        -3.9767340000        9.9090840000        0.7249910000
  O        28.3376330000       -0.1695610000       -3.5326110000
  H        28.7494580000       -0.8685100000       -4.0149140000
  H        28.4230140000       -0.4022370000       -2.6262350000
  O        22.4761910000       26.4102820000       -0.1995820000
  H        21.9572390000       26.4781740000        0.5952520000
  H        22.0035340000       27.0880580000       -0.7624180000
  O         0.0772700000       10.0464970000        3.1065370000
  H        -0.6473390000       10.1834260000        2.4684150000
  H         0.2994970000       10.9613090000        3.3979580000
  O         4.7102310000       17.6183760000      -11.8345640000
  H         4.0478260000       17.1434230000      -12.3705570000
  H         4.9255700000       18.3578850000      -12.4715240000
  O        24.5352310000        5.1282810000       -1.1418880000
  H        23.8249320000        5.6137850000       -1.5925480000
  H        24.5544930000        5.6648970000       -0.3058710000
  O        -0.7863730000        0.4461650000       -9.9764760000
  H        -0.1586530000        0.6033220000      -10.6718000000
  H        -0.5100600000        1.0646540000       -9.2967220000
  O        23.8078990000       -0.9168870000       -2.8289680000
  H        24.4107420000       -0.1722490000       -2.7547020000
  H        23.0755440000       -0.5629710000       -3.3110110000
  O         8.6573010000        1.1791800000      -11.4112060000
  H         8.1026580000        1.6163400000      -10.7609070000
  H         7.9470370000        0.6752900000      -11.8858070000
  O        -3.5075140000       18.7218780000       -3.0947510000
  H        -3.9967410000       19.2202090000       -3.8055510000
  H        -3.1878460000       19.5308610000       -2.5762080000
  O        29.4725890000       -7.5190580000       -4.8891450000
  H        28.9559840000       -6.9286960000       -5.5562570000
  H        29.1985950000       -8.4059650000       -5.3531160000
  O        20.4537390000       26.5904060000       -8.1461980000
  H        20.0942690000       26.5453190000       -7.2195060000
  H        20.5149040000       27.5420480000       -8.2159130000
  O        17.4461630000       13.6865240000       -6.1683110000
  H        17.6900010000       14.2459720000       -6.9249060000
  H        16.6904790000       14.1774700000       -5.7797220000
  O        12.1369330000       15.4014840000      -10.0391310000
  H        12.9949920000       15.7591520000       -9.7663970000
  H        11.7699130000       16.0830380000      -10.5708070000
  O        13.2681850000       28.5974290000      -15.2042460000
  H        12.7747350000       28.1133820000      -15.9464730000
  H        13.2014290000       27.8523690000      -14.4804840000
  O        22.3900260000        2.9610950000       -3.0584190000
  H        22.6314320000        3.3853990000       -2.1944330000
  H        22.9553660000        3.5266860000       -3.6769480000
  O        20.9181650000       -2.7811120000       -8.7067240000
  H        21.6434520000       -3.0410440000       -9.3231980000
  H        20.6214810000       -1.9421020000       -9.1730550000
  O        -4.4161410000        5.5933760000      -10.0107300000
  H        -3.9474220000        6.2413810000      -10.5800550000
  H        -4.2504980000        4.7584420000      -10.4817840000
  O        20.4109060000       11.6420360000       -0.9192160000
  H        20.5150090000       12.6107760000       -0.7550340000
  H        19.5008620000       11.6967700000       -1.3608430000
  O        15.5629050000        7.2471810000        1.9759410000
  H        16.2070240000        7.9662340000        1.7864860000
  H        14.7559630000        7.6147370000        1.4968340000
  O        -1.2118460000       24.3216840000       -1.6215540000
  H        -1.0166810000       25.2368320000       -1.7431310000
  H        -0.5070840000       23.9961660000       -1.0720930000
  O        22.8988320000        7.4724180000      -13.5049850000
  H        22.3861980000        8.2866800000      -13.6355480000
  H        22.2896190000        6.7841670000      -13.7340760000
  O        16.8528650000        1.9580410000       -2.0795320000
  H        16.6196780000        2.8864830000       -2.3032520000
  H        17.1654260000        1.6847290000       -2.9767580000
  O        25.0700990000       -4.9887620000       -0.0817750000
  H        24.6112270000       -4.1376380000        0.0270310000
  H        24.3091160000       -5.5926420000        0.0759570000
  O        -2.8114550000        7.7144770000      -10.9498790000
  H        -3.0624420000        8.5195900000      -10.5319870000
  H        -1.8572650000        7.6934940000      -10.8127610000
  O        30.2408280000       -1.8961120000       13.2621490000
  H        29.2682270000       -1.9445490000       13.4825720000
  H        30.4630510000       30.9718460000       13.6681870000
  O         5.3386780000       -0.7543820000        5.6142930000
  H         5.3730740000       -0.2266330000        4.7843480000
  H         5.0089430000       -1.6061610000        5.2360360000
  O         7.5190250000        0.2830340000       -5.2775550000
  H         7.5250370000        0.1658730000       -6.2615530000
  H         7.6297850000       -0.6056450000       -4.9336500000
  O        10.1960170000       -2.6253380000      -14.8996600000
  H        10.9576820000       -2.5047990000      -15.4725310000
  H         9.8546490000       -3.5034380000      -15.1252910000
  O        29.0551640000       15.8050920000        5.7986220000
  H        28.7764910000       16.7341250000        5.6274450000
  H        30.0080200000       15.9049460000        5.6280140000
  O        22.8418960000        8.7956330000       -0.4469980000
  H        22.6574990000        9.2950330000       -1.2813310000
  H        22.7910310000        9.5550870000        0.1919830000
  O        29.6949730000        2.1537390000       -4.2402480000
  H        28.7506850000        2.4537370000       -4.2885040000
  H        29.5303610000        1.1692390000       -4.2448690000
  O         0.3943170000        1.2607120000      -12.7682750000
  H         0.1536620000        2.2322470000      -12.9116560000
  H        -0.4324970000        0.9404840000      -13.2442880000
  O         9.8326630000        3.2687490000        2.7878470000
  H        10.1544970000        3.8831030000        3.4977290000
  H         8.8430300000        3.4632800000        2.8490680000
  O        11.6394380000       -3.0549100000       -6.9585190000
  H        12.2681500000       -2.2693910000       -6.9768420000
  H        11.3910930000       -2.9635310000       -7.9404970000
  O         4.3767320000       -0.4648930000      -13.3452530000
  H         3.4325830000       -0.4786720000      -13.0449360000
  H         4.3296280000       -1.1158320000      -14.0625680000
  O        25.8208050000        1.2091180000       -2.9519520000
  H        26.5789720000        0.5722080000       -2.8752710000
  H        26.3339960000        1.9894600000       -3.3024090000
  O        13.3876220000       20.6693120000       10.6379590000
  H        13.1062360000       19.9196570000       10.2365870000
  H        14.3402370000       20.5733390000       10.3794620000
  O         3.3729780000        6.9055000000      -10.0527490000
  H         4.0808480000        7.5995970000       -9.8996440000
  H         2.8154920000        7.4757400000      -10.6437290000
  O        11.2335410000       12.4148770000       -7.5001240000
  H        11.1851380000       13.4092480000       -7.2562270000
  H        10.9652060000       12.4638100000       -8.4442950000
  O        26.4710140000        4.7073450000        6.7436910000
  H        26.5143680000        5.1462280000        5.8761250000
  H        25.8582970000        5.2929090000        7.2414380000
  O         8.9590230000        6.6700230000        4.1785880000
  H         8.7616540000        6.6403990000        3.2013700000
  H         8.7629120000        5.8997880000        4.7389260000
  O        11.1076680000       -3.3042560000      -12.3032170000
  H        10.9227650000       -2.3886310000      -11.9689660000
  H        10.9517960000       -3.1094960000      -13.2567790000
  O        16.7730500000       14.7703150000       -1.7327250000
  H        16.2158930000       14.3815020000       -1.0617330000
  H        16.1036700000       15.3263840000       -2.1971830000
  O        11.3810150000        6.6424320000       10.9946820000
  H        12.0960320000        6.1924680000       11.5454450000
  H        10.7206440000        6.0163890000       10.6444990000
  O         7.4412060000       18.4649300000        3.6794380000
  H         7.5373390000       17.5132940000        3.5448480000
  H         8.2390690000       18.6954690000        4.1730660000
  O         4.1914710000       25.8299310000        1.0662540000
  H         4.1162730000       25.6209140000        2.0004270000
  H         5.1502550000       25.9719960000        1.0112850000
  O         7.4022520000        1.7664720000      -14.1898200000
  H         7.8670220000        0.8786720000      -14.2413280000
  H         7.4352270000        2.0514110000      -15.1289310000
  O        18.2957460000        8.2255080000       11.5021790000
  H        17.8204570000        7.3981250000       11.7858050000
  H        18.7278790000        7.9954500000       10.6568280000
  O         3.0437740000        2.4527660000        5.5890300000
  H         2.8898350000        2.2317200000        4.6497480000
  H         2.4917080000        3.2326340000        5.7333210000
  O        17.8817140000       -0.8812100000      -14.3189540000
  H        17.7854210000        0.0197050000      -14.5944570000
  H        16.9518090000       -1.1261910000      -14.1951200000
  O        23.3092560000       23.2128830000      -14.1833550000
  H        22.4895110000       23.5635050000      -14.6728920000
  H        23.0224380000       23.3371110000      -13.2446160000
  O         6.1902580000       -7.1731100000        6.6553610000
  H         7.0031420000       24.9582750000        7.1881900000
  H         5.5554030000       -6.6442960000        7.1661790000
  O         4.5385280000       17.2660220000       -4.6590180000
  H         3.7507020000       17.8572410000       -4.6729530000
  H         4.8766920000       17.5186730000       -3.7841610000
  O        23.0426980000       18.0881250000        5.0848550000
  H        23.0695880000       18.9867360000        5.4694650000
  H        22.2534900000       17.7698820000        5.7097300000
  O         6.9362970000        5.6540990000        0.5829810000
  H         5.9997630000        5.9947560000        0.5366640000
  H         7.0660840000        5.4968100000       -0.3952680000
  O        34.1211130000        4.6764660000       13.0423970000
  H        33.1619070000        4.4611600000       12.8510100000
  H        34.0383950000        4.9778700000       13.9576850000
  O         6.4307250000       -0.0483300000       -1.7182590000
  H         6.0622630000       -0.5901990000       -2.4797060000
  H         5.9984840000        0.7914310000       -1.9576540000
  O        17.3499580000       19.9844130000        2.6377050000
  H        16.4124260000       20.1409530000        2.8228570000
  H        17.7542360000       20.3670940000        3.4658210000
  O        24.5269530000       21.5945590000       -4.5791570000
  H        23.6567860000       21.9300580000       -4.3597520000
  H        25.0643480000       22.3950330000       -4.2727560000
  O        20.6435850000        5.8200960000       -5.2014870000
  H        20.9032960000        5.5977750000       -4.2950480000
  H        19.7981850000        6.3277020000       -4.9558770000
  O        11.0578550000       -1.1463830000       10.4666970000
  H        11.9881140000       -1.4203400000       10.3691340000
  H        11.0851730000       -0.4824590000       11.2147120000
  O         4.5169820000       27.0451970000        7.8831790000
  H         5.3216510000       27.2161690000        8.4220710000
  H         4.5798100000       27.7050300000        7.1766620000
  O        -3.6331900000        1.6681820000       -1.2392510000
  H        -4.4544430000        2.0743790000       -0.8729450000
  H        -3.5726150000        2.1716050000       -2.0720520000
  O         5.4100360000       10.2254630000      -12.7553950000
  H         5.8815140000       11.1075450000      -12.9368620000
  H         5.8825210000        9.6782150000      -13.4432870000
  O         3.0628560000       -4.5298730000       -5.6484460000
  H         2.3642870000       -3.8392390000       -5.5689590000
  H         3.7971380000       -3.9927130000       -5.1786760000
  O        25.9228440000       18.8982830000      -14.3107000000
  H        25.0134280000       19.1218680000      -14.5612030000
  H        25.8781320000       17.9033240000      -14.3946540000
  O        15.7584270000       15.0232640000        8.8319550000
  H        14.7962770000       15.0933030000        9.0403210000
  H        15.6925660000       14.2942470000        8.1690770000
  O        12.2034370000        8.2133250000       -1.8310740000
  H        11.7800040000        9.0128670000       -2.1968730000
  H        12.9505450000        8.1271420000       -2.4427210000
  O         6.3425130000       12.8693020000      -13.1695870000
  H         5.4164010000       13.2461080000      -13.2655020000
  H         6.8040390000       13.7511200000      -13.1216750000
  O        20.1709140000       -1.7859550000       -4.9321110000
  H        19.9007950000       -1.2474980000       -5.7104810000
  H        20.7894780000       -1.1419630000       -4.5115490000
  O        21.2817630000        5.1263690000      -13.5090620000
  H        20.7266450000        4.3518610000      -13.6532890000
  H        20.6390500000        5.8169940000      -13.3261450000
  O         9.3247350000       18.7014940000       -0.9612790000
  H        10.2902150000       18.8274860000       -0.8500610000
  H         9.2830900000       17.7769300000       -0.6048680000
  O        23.3099040000       -2.8002540000      -10.1796130000
  H        24.1834200000       -2.6724670000       -9.7985450000
  H        23.4717010000       -3.4679990000      -10.8702530000
  O        14.3164710000       19.1826230000       -9.5853810000
  H        13.4556060000       19.1362970000       -9.0572760000
  H        14.4661020000       20.1595880000       -9.5170160000
  O        18.0316260000       15.8926370000        4.5199430000
  H        18.6887590000       15.2283200000        4.9247490000
  H        18.5836050000       16.4611360000        3.8848750000
  O         2.9207120000        8.8119510000        8.4087410000
  H         3.0718280000        8.4379240000        7.5182850000
  H         3.6948870000        8.5822740000        9.0023480000
  O         9.8522330000        1.4983460000        4.9941080000
  H         9.9234570000        2.0725040000        4.1960070000
  H         8.8878550000        1.7146750000        5.2375940000
  O        19.9374390000       14.1012130000        5.9165400000
  H        19.4474110000       13.3102620000        6.2464590000
  H        20.8393610000       13.7922310000        6.0406630000
  O        25.4800380000       22.1350860000        9.1325900000
  H        25.5288890000       21.9986970000       10.0748090000
  H        24.5604520000       22.4313490000        8.9907100000
  O         7.5065840000        4.5741330000       -1.9697560000
  H         8.2939680000        5.1388040000       -1.9988340000
  H         7.6819980000        4.0820580000       -2.8348920000
  O        -0.7195620000        1.8082120000       -0.1247940000
  H        -1.4375610000        2.2846870000       -0.5607590000
  H        -0.6039430000        2.3645460000        0.6927640000
  O        -1.8377630000        4.9094830000        5.0581340000
  H        -1.7821490000        5.0069560000        6.0157620000
  H        -2.8079000000        4.7488160000        4.9933610000
  O         9.1683950000       -2.9040310000        0.0035910000
  H         8.1837840000       -3.0430770000       -0.0786290000
  H         9.1948160000       -1.9445740000       -0.2762900000
  O         9.4312090000        2.8443420000        8.6966140000
  H         8.6614860000        2.1878650000        8.9366560000
  H         9.9711570000        2.4275520000        7.9843850000
  O        18.4978680000       23.1877800000      -11.3815270000
  H        18.5743540000       22.4949360000      -12.1080560000
  H        18.2630210000       23.9295180000      -12.0018870000
  O         7.8412510000        0.3619930000       -8.1159820000
  H         7.1548760000        0.8489530000       -8.6307340000
  H         8.5374890000        1.0887630000       -7.9759050000
  O        17.8235240000       23.7358340000        0.7724390000
  H        18.1066610000       -7.3806280000        0.5128200000
  H        17.0161110000       23.9462740000        1.2782800000
  O        13.8033350000       21.2975750000       -0.9372720000
  H        13.7489170000       22.1014140000       -1.5686630000
  H        14.1150400000       21.7292420000       -0.1325620000
  O         7.2027530000        1.4554950000        8.6867440000
  H         7.3970340000        1.5504630000        7.7287880000
  H         6.2226010000        1.4257170000        8.6561370000
  O        25.0287950000       -6.0273820000        3.4508040000
  H        24.4954640000       -6.2419640000        4.2738460000
  H        24.7968310000       26.8772140000        3.2631460000
  O         1.3269850000       12.4594670000        3.3516510000
  H         2.1893840000       12.8787920000        3.1381860000
  H         1.2432240000       12.7021860000        4.2887160000
  O         3.2472830000        2.5552060000       -5.3361510000
  H         4.0629550000        3.0124930000       -5.1528000000
  H         2.7162140000        2.6261950000       -4.5617770000
  O        13.2051120000        4.6920590000        8.5824930000
  H        12.4360480000        4.7479680000        7.9828140000
  H        12.9991640000        3.9263360000        9.2657590000
  O        13.2829950000        5.6549180000       -8.7925210000
  H        14.1062690000        6.2055420000       -8.6027020000
  H        12.8258990000        6.3430350000       -9.3844050000
  O        -1.3365200000       12.8278800000      -11.7017150000
  H        -1.1528670000       12.0594510000      -11.1698550000
  H        -1.9183560000       12.4987480000      -12.4046770000
  O        20.5932220000        3.6849510000        1.3296920000
  H        20.1590040000        4.5607630000        1.2231860000
  H        20.1123290000        3.1688900000        0.6520890000
  O         4.7683900000       -2.0655590000       -5.7012330000
  H         4.2592890000       -1.8347280000       -4.9138350000
  H         4.3529910000       -1.4042240000       -6.2914470000
  O        15.5035130000        1.4578960000        8.9402070000
  H        15.6765280000        0.5805870000        9.2744670000
  H        14.8554750000        1.3516350000        8.2761290000
  O         5.5663040000       19.4392320000        1.4613390000
  H         6.0444360000       19.6066210000        2.2788720000
  H         5.4617760000       20.3417130000        1.0617330000
  O         5.1266550000       20.4539470000        9.3086040000
  H         4.7852580000       20.6329000000       10.2296290000
  H         5.8883780000       21.1098730000        9.3571100000
  O        15.4634080000       -2.0330850000       -3.5931190000
  H        14.6225130000       -2.5207270000       -3.8213180000
  H        15.4031130000       -1.3967960000       -4.3589790000
  O         9.3804660000       26.9117220000       -8.4868500000
  H         9.7481410000       -4.1982210000       -8.6847940000
  H         8.8757450000       -4.8973610000       -7.6858130000
  O         0.9623520000       17.0744710000      -11.0443270000
  H         0.6997330000       16.1884000000      -11.4133340000
  H         0.1346830000       17.2907940000      -10.5698000000
  O         1.1241500000       -4.6264730000        2.0589640000
  H         1.5025730000       -5.1223920000        1.3053560000
  H         1.4771070000       -5.0774310000        2.8285090000
  O         6.4246840000        8.8532530000      -14.9314810000
  H         7.3068290000        8.4466890000      -15.1746220000
  H         6.1865280000        9.1397420000      -15.8223110000
  O        21.6979410000        0.3515550000       -4.0131770000
  H        21.8943000000        1.2392950000       -3.5250790000
  H        21.9433040000        0.6221330000       -4.9067930000
  O        13.4517120000        5.0351730000       -6.1068060000
  H        13.2584450000        5.8723370000       -5.6413330000
  H        13.2747730000        5.2528820000       -7.0319290000
  O        18.0980050000       12.1894410000        6.3840590000
  H        17.4694730000       12.1437900000        5.6117800000
  H        18.4569590000       11.2778350000        6.6866970000
  O        27.2604140000       -6.3696500000        0.6728240000
  H        27.4930000000       25.6047190000        1.6456770000
  H        26.4454330000       -5.7964940000        0.6660550000
  O         1.1073070000        2.3958490000       -3.4263220000
  H         1.0423970000        2.9029500000       -2.5735470000
  H         0.7064820000        3.0393510000       -4.0437570000
  O        21.3801520000       20.3309710000       -3.6603470000
  H        21.8147720000       21.1526260000       -3.5221440000
  H        20.4996780000       20.4893950000       -3.3122530000
  O        -1.6443270000       -3.9839190000       -3.5705800000
  H        -2.2175660000       -4.1522480000       -2.7649500000
  H        -0.8410290000       -4.4435860000       -3.3345390000
  O         7.2850540000        4.0838890000        2.6688930000
  H         7.2716230000        4.6322660000        1.8886300000
  H         6.3131860000        3.8588400000        2.7641500000
  O        27.5868400000        2.7357610000        4.6071760000
  H        27.2181780000        2.8145570000        3.6556750000
  H        26.7483220000        2.8573230000        5.0567010000
  O        15.6583310000       19.9287700000        5.1754570000
  H        15.3393030000       19.0878750000        4.9764900000
  H        16.0815960000       20.0031280000        6.0357260000
  O        -2.9212530000       15.5540860000       -1.0403870000
  H        -2.2452770000       16.2286090000       -1.0921170000
  H        -3.7163270000       15.9712220000       -1.3137190000
  O         8.8096490000       17.9370000000       12.3018650000
  H         8.2369880000       17.1883200000       12.0679310000
  H         8.9933250000       18.2334080000       11.3776000000
  O         6.3929690000       26.2705230000       -5.1181680000
  H         6.5079990000       26.7960220000       -5.9237170000
  H         6.5248430000       26.9387320000       -4.4577590000
  O        27.2478200000       24.6287230000      -11.7660060000
  H        26.9101050000       24.2484040000      -12.6209420000
  H        -5.6493570000       24.7689480000      -11.3508460000
  O        -2.0673620000       26.6541730000       -8.7053850000
  H        -2.7528540000       26.4721550000       -7.9711960000
  H        -2.2192210000       25.7817060000       -9.2132380000
  O         0.5135590000        0.0008500000        4.1756990000
  H         0.2281550000        0.7630400000        4.7013600000
  H         1.4209990000        0.2824040000        3.9915670000
  O        16.2279870000       -2.4609560000       -1.0147760000
  H        15.9149710000       -2.5549470000       -1.9653100000
  H        16.7416380000       -1.6250720000       -1.1120380000
  O        14.1231820000       24.9001770000      -11.8007400000
  H        14.8542430000       24.2416020000      -11.8414950000
  H        14.4870860000       25.5397990000      -11.0770470000
  O        10.8233280000        9.9673800000        0.3798020000
  H         9.9665340000        9.7528690000        0.0067090000
  H        11.3296330000       10.2839740000       -0.3655350000
  O        -4.5320870000       18.4779610000        6.4255860000
  H        -5.2680090000       18.9229320000        6.9344450000
  H        -4.2301590000       19.2752570000        5.8849260000
  O         2.1888530000       22.0329400000        1.5163870000
  H         2.6158220000       22.2349150000        2.3451200000
  H         2.9011560000       22.2775540000        0.8900720000
  O        17.2292790000        2.1808100000      -15.7001090000
  H        16.9160710000        2.6786930000      -16.4748100000
  H        16.3773040000        1.7850160000      -15.3871770000
  O        -0.1141460000       16.0002350000       -7.7102960000
  H        -1.0054250000       16.1823020000       -7.3333040000
  H        -0.4321730000       15.7746470000       -8.6394550000
  O        21.1817070000        6.0787760000       -2.2207480000
  H        20.4588930000        6.7722720000       -2.1873270000
  H        21.9415110000        6.6046840000       -2.3643700000
  O        13.0430350000        2.6865410000      -11.2566550000
  H        12.3906240000        2.9632600000      -11.8956860000
  H        13.7219180000        3.3786490000      -11.4213420000
  O        24.8030130000       -0.5502150000       -7.8011690000
  H        25.3746220000       -0.9893720000       -8.5297550000
  H        25.5930580000       -0.2820000000       -7.2540350000
  O        11.7543090000        4.7741810000        4.8362430000
  H        12.1678750000        4.2935840000        4.0933690000
  H        11.7458800000        4.0048330000        5.4259470000
  O        21.6676250000       18.4910510000      -10.9612360000
  H        20.9615020000       18.9168000000      -10.3854060000
  H        22.3191810000       19.2132630000      -10.9779760000
  O        17.2756840000       14.2470410000      -10.6055820000
  H        16.8652170000       14.9334020000      -11.1583750000
  H        17.5021320000       14.6917000000       -9.7835240000
  O        19.1372720000        6.9557270000        9.1282050000
  H        18.5511230000        6.3865040000        9.5887570000
  H        19.9105430000        6.4906190000        8.7582140000
  O        27.9368630000       13.3088610000        5.5093910000
  H        28.0920240000       14.2207400000        5.8284770000
  H        28.1026650000       13.4010410000        4.5585940000
  O         6.8820650000       -0.9911930000      -12.2943660000
  H         6.6537500000       -1.7037690000      -11.6840770000
  H         5.9813990000       -0.6666680000      -12.5451290000
  O         0.7456910000       18.7553370000       -0.1945100000
  H         0.3470120000       18.5222720000       -1.0491620000
  H         0.0119570000       19.3032970000        0.1453690000
  O        10.0232800000        1.7204840000        0.5191060000
  H         9.9779810000        1.9668430000        1.4537920000
  H        10.2786070000        2.6156030000        0.1716180000
  O        10.0809110000       16.5919860000       -5.5991700000
  H        10.4804060000       17.0008470000       -4.8052140000
  H         9.6145980000       17.3810160000       -5.9896900000
  O        10.9839150000       17.9791490000       10.0003630000
  H        11.6451010000       17.6219540000       10.5427160000
  H        11.0857010000       17.5856380000        9.0692160000
  O        11.1792500000       10.2829620000      -10.3633450000
  H        11.1748470000       11.2139120000      -10.2099910000
  H        10.5383170000       10.0041440000       -9.6383670000
  O        22.3889120000       14.0819460000       -7.5887990000
  H        23.0203780000       14.2348500000       -8.3408320000
  H        21.8202720000       14.8695420000       -7.7257750000