#     Step Nr.          Time[fs]        Kin.[a.u.]          Temp[K]            Pot.[a.u.]        Cons Qty[a.u.]        UsedTime[s]
         0            0.000000         3.843405441       300.000000000     -1268.361231025     -1264.517350561         0.000000000
         1            1.000000         3.609585353       281.748991191     -1268.019413409     -1264.408529954        51.809120636
         2            2.000000         3.587336228       280.012318438     -1268.014691382     -1264.425301168        13.184785217
         3            3.000000         3.660064371       285.689170215     -1268.108558034     -1264.445724620        12.596360840
         4            4.000000         3.551887464       277.245337623     -1267.882627430     -1264.327297672        12.590483926
         5            5.000000         3.766826011       294.022533038     -1268.179297826     -1264.408394466        12.632666707
         6            6.000000         3.668993325       286.386126677     -1268.002524796     -1264.328830838        12.632256854
         7            7.000000         3.649121673       284.835029408     -1267.950844102     -1264.296439664        12.590653822
         8            8.000000         3.926640749       306.496996631     -1268.353543405     -1264.421048200        12.602878988
         9            9.000000         3.750012959       292.710177160     -1268.122697661     -1264.366245369        13.243617229
        10           10.000000         3.739596597       291.897119959     -1268.140039949     -1264.393447336        13.252603590
        11           11.000000         3.720750208       290.426050368     -1268.143917353     -1264.415636738        13.248482585
        12           12.000000         3.632079936       283.504823366     -1267.974712022     -1264.334599795        13.242506333
        13           13.000000         3.980644042       310.712265679     -1268.399027882     -1264.409862863        13.241834641
        14           14.000000         3.909499204       305.159000060     -1268.288316208     -1264.369771780        13.825639032
        15           15.000000         3.802107302       296.776441594     -1268.141549607     -1264.329871956        13.258162543
        16           16.000000         3.989961437       311.439542158     -1268.402191650     -1264.402129680        13.223856695
        17           17.000000         3.849254200       300.456529377     -1268.176765984     -1264.316856047        13.231387995
        18           18.000000         3.917917834       305.816122766     -1268.310070579     -1264.380939864        13.265819278
        19           19.000000         3.838251709       299.597721444     -1268.263036175     -1264.413003454        13.198858220
        20           20.000000         3.624989661       282.951386459     -1267.950561797     -1264.313247988        13.232397452
        21           21.000000         3.963891374       309.404623142     -1268.388783096     -1264.412044487        13.276756309
        22           22.000000         3.998420285       312.099804117     -1268.348357093     -1264.336522916        12.561714936
        23           23.000000         3.934764946       307.131137198     -1268.218702325     -1264.269928846        12.604340944
        24           24.000000         3.989430396       311.398091344     -1268.302160326     -1264.298104706        12.605426807
        25           25.000000         3.761221806       293.585092426     -1267.968725364     -1264.192252143        12.615149956
        26           26.000000         3.938340689       307.410244586     -1268.220237086     -1264.266028340        12.578638148
        27           27.000000         3.966561490       309.613041143     -1268.240460007     -1264.257380785        12.620097276
        28           28.000000         3.703881042       289.109314500     -1267.891446439     -1264.170399038        12.615518164
        29           29.000000         3.895541343       304.069508332     -1268.181070975     -1264.267736124        12.571653511
        30           30.000000         3.902664080       304.625479140     -1268.143060087     -1264.221952011        12.040525503
        31           31.000000         3.940346231       307.566788683     -1268.187352566     -1264.227894184        12.590837386
        32           32.000000         3.991761782       311.580069497     -1268.292738526     -1264.281167353        12.578377955
        33           33.000000         3.665817490       286.138234404     -1267.836785971     -1264.150464706        12.627224140
        34           34.000000         3.819801733       298.157594157     -1268.054308224     -1264.213345804        12.614372645
        35           35.000000         3.944646523       307.902451322     -1268.226204121     -1264.259719717        12.586430360
        36           36.000000         3.793974591       296.141636520     -1268.018630802     -1264.202128786        12.622688562
        37           37.000000         3.924259746       306.311145634     -1268.235277997     -1264.287804663        12.587930582
        38           38.000000         3.796059728       296.304393539     -1268.040259244     -1264.220288574        12.591054849
        39           39.000000         3.853456734       300.784561446     -1268.116182674     -1264.238127508        12.643564466
        40           40.000000         3.984309169       310.998350013     -1268.282325061     -1264.272707672        12.605715252
        41           41.000000         3.642371441       284.308134774     -1267.796857145     -1264.128469199        12.621543720
        42           42.000000         3.704780031       289.179485847     -1267.921525256     -1264.190073910        12.608747739
        43           43.000000         3.833685899       299.241333553     -1268.083319714     -1264.222314820        11.940004013
        44           44.000000         3.843418563       300.001024252     -1268.028745061     -1264.157351370        12.600189034
        45           45.000000         4.022521469       313.981040811     -1268.312389808     -1264.261215022        12.620734125
        46           46.000000         3.763811170       293.787207284     -1267.963572998     -1264.170410669        12.591002215
        47           47.000000         3.751537097       292.829144932     -1267.980592706     -1264.199038809        13.220686462
        48           48.000000         3.968321608       309.750428528     -1268.277311026     -1264.278299961        12.569288462
        49           49.000000         3.751883039       292.856147689     -1268.001251453     -1264.217990517        12.575191315
        50           50.000000         3.783316060       295.309676638     -1268.090728386     -1264.275372716        13.270647276
        51           51.000000         3.772508849       294.466111323     -1268.041755073     -1264.236554302        12.583343465
        52           52.000000         3.779651013       295.023598508     -1268.026100853     -1264.213117791        12.591372468
        53           53.000000         4.098447299       319.907490484     -1268.460418449     -1264.327974501        13.241179783
        54           54.000000         3.896408352       304.137183415     -1268.183084616     -1264.251964266        12.570048809
        55           55.000000         3.766418381       293.990715112     -1268.033254251     -1264.231423798        12.577180330
        56           56.000000         3.881979820       303.010953152     -1268.212064920     -1264.293981596        12.584621869
        57           57.000000         3.774669734       294.634780907     -1268.040819501     -1264.229350016        12.609372538
        58           58.000000         3.926741534       306.504863469     -1268.296338773     -1264.332102464        12.580026254
        59           59.000000         3.828801386       298.860069113     -1268.168076547     -1264.301067984        12.572549868
        60           60.000000         3.683001435       287.479540528     -1267.977465052     -1264.255568334        12.580420706
        61           61.000000         3.959286039       309.045150148     -1268.354839964     -1264.355978032        12.588183053
        62           62.000000         3.850943622       300.588398575     -1268.169500030     -1264.278269076        12.563747577
        63           63.000000         3.781037729       295.131839754     -1268.099520768     -1264.277495848        11.981285308
        64           64.000000         3.810873660       297.460706511     -1268.174598668     -1264.322049340        12.594448652
        65           65.000000         3.664634731       286.045913213     -1267.948598211     -1264.241618257        12.549936496
        66           66.000000         3.921401724       306.088060485     -1268.289068980     -1264.324665920        12.645163193
        67           67.000000         3.907561137       305.007722711     -1268.260386069     -1264.309135172        12.541729636
        68           68.000000         3.729785432       291.131301846     -1268.020552914     -1264.246395174        12.582662262
        69           69.000000         3.915197136       305.603756563     -1268.284286036     -1264.324044646        11.985009573
        70           70.000000         3.816392808       297.891507911     -1268.131085942     -1264.268959666        12.585625395
        71           71.000000         3.847334129       300.306656799     -1268.162278050     -1264.268527004        12.553915277
        72           72.000000         3.875047384       302.469836403     -1268.246233163     -1264.324076992        12.549213987
        73           73.000000         3.668973651       286.384590951     -1267.951628631     -1264.234867280        12.539354414
        74           74.000000         3.939775840       307.522266363     -1268.305002543     -1264.316774620        11.976953257
        75           75.000000         4.010101440       313.011585786     -1268.378489573     -1264.319224372        12.591571987
        76           76.000000         3.858458060       301.174943883     -1268.158046507     -1264.249689246        12.546512075
        77           77.000000         3.942090354       307.702927611     -1268.280049251     -1264.287318582        12.587413415
        78           78.000000         3.772611062       294.474089707     -1268.049468656     -1264.225468007        12.542585935
        79           79.000000         3.859651481       301.268097281     -1268.162111178     -1264.250333548        11.952105161
        80           80.000000         3.941299774       307.641218226     -1268.299449668     -1264.305264638        12.571781147
        81           81.000000         3.685519963       287.676126245     -1267.990242398     -1264.251080890        12.588549767
        82           82.000000         3.845448272       300.159454764     -1268.222384424     -1264.322565589        12.580899689
        83           83.000000         3.899111923       304.348212719     -1268.271208510     -1264.316975355        12.567569856
        84           84.000000         3.849244263       300.455753795     -1268.191107185     -1264.285978825        12.592208527
        85           85.000000         3.944741735       307.909883174     -1268.388045382     -1264.386643925        12.549636170
        86           86.000000         3.697250138       288.591734174     -1268.039325794     -1264.284640472        12.554572035
        87           87.000000         3.781438291       295.163105863     -1268.153641214     -1264.314025939        12.569792170
        88           88.000000         3.944926419       307.924298880     -1268.403285712     -1264.399422896        12.555738460
        89           89.000000         3.741192370       292.021679265     -1268.115843968     -1264.314945212        12.607352406
        90           90.000000         3.827953365       298.793876178     -1268.283589659     -1264.395181136        12.557266716
        91           91.000000         3.797017332       296.379140037     -1268.156617331     -1264.298392990        12.587648857
        92           92.000000         3.809555860       297.357844587     -1268.132621539     -1264.261113204        12.587597020
        93           93.000000         3.994013038       311.755793064     -1268.377271592     -1264.320540059        12.577556450
        94           94.000000         3.754000552       293.021431869     -1268.043392080     -1264.225889220        11.954357307
        95           95.000000         3.785497096       295.479919045     -1268.096173326     -1264.246418278        11.982589897
        96           96.000000         3.947090413       308.093211085     -1268.313307872     -1264.301188992        11.944672730
        97           97.000000         3.835989424       299.421136974     -1268.176605496     -1264.274794106        11.923810370
        98           98.000000         3.920480005       306.016115003     -1268.317425023     -1264.330324692        11.975996561
        99           99.000000         3.762735371       293.703234935     -1268.121224681     -1264.291064738        11.952551689
       100          100.000000         3.719745201       290.347603765     -1268.065966602     -1264.278022391        11.938473284
       101          101.000000         3.981167755       310.753144527     -1268.374780697     -1264.324629845        11.916023068
       102          102.000000         3.811223500       297.488013579     -1268.142955770     -1264.261934610        12.584371783
       103          103.000000         3.788426175       295.708550594     -1268.130979976     -1264.271960058        12.552298881
       104          104.000000         3.861897894       301.443442797     -1268.258306029     -1264.325017177        12.537603039
       105          105.000000         3.812377191       297.578065776     -1268.177522005     -1264.292949093        11.945075732
       106          106.000000         4.018116429       313.637201946     -1268.450883270     -1264.359745057        11.916108817
       107          107.000000         3.860839267       301.360810822     -1268.245042622     -1264.310319340        11.967256509
       108          108.000000         3.724812453       290.743132095     -1268.079049251     -1264.279513759        11.932709638
       109          109.000000         3.943535171       307.815703924     -1268.358221007     -1264.339124571        11.962169431
       110          110.000000         3.876528091       302.585414162     -1268.281111769     -1264.328149526        12.593807802
       111          111.000000         3.932278220       306.937033868     -1268.432326891     -1264.422727785        12.572772667
       112          112.000000         3.906544525       304.928370251     -1268.421008597     -1264.436231690        12.624707263
       113          113.000000         3.755466902       293.135888942     -1268.157716124     -1264.323111042        11.931545805
       114          114.000000         4.015286824       313.416334922     -1268.494310584     -1264.398968646        12.554934263
       115          115.000000         3.964676106       309.465875991     -1268.451825202     -1264.406119081        12.548523970
       116          116.000000         3.831459988       299.067588365     -1268.294219282     -1264.380748411        12.558002718
       117          117.000000         3.946408691       308.039998746     -1268.454109737     -1264.424701533        12.599490210
       118          118.000000         3.847188939       300.295323839     -1268.267153250     -1264.335952616        12.585105434
       119          119.000000         3.968498843       309.764262763     -1268.431970045     -1264.378431585        12.611531723
       120          120.000000         3.948804032       308.226968916     -1268.431558329     -1264.396644759        12.566681601
       121          121.000000         3.718467661       290.247884438     -1268.121456170     -1264.315820504        12.610897794
       122          122.000000         3.914418842       305.543006162     -1268.387960362     -1264.385327381        12.580138862
       123          123.000000         3.931868552       306.905056870     -1268.362508421     -1264.341333587        12.575471077
       124          124.000000         3.894344300       303.976072215     -1268.321966455     -1264.337203004        12.564339101
       125          125.000000         3.960065896       309.106022518     -1268.439271330     -1264.387649169        12.620536510
       126          126.000000         3.777360330       294.844797477     -1268.183339040     -1264.313278012        11.939398680
       127          127.000000         3.913391523       305.462818023     -1268.368718577     -1264.361486784        12.559948966
       128          128.000000         3.957128836       308.876767995     -1268.392787692     -1264.340633019        12.584394060
       129          129.000000         3.729238371       291.088600542     -1268.086913044     -1264.261467804        12.621401962
       130          130.000000         3.844547548       300.089148014     -1268.267491722     -1264.325580310        12.566725817
       131          131.000000         3.847499429       300.319559405     -1268.179209054     -1264.233165934        12.610035993
       132          132.000000         3.907671431       305.016331819     -1268.261753044     -1264.254338700        12.560463004
       133          133.000000         4.017617465       313.598254977     -1268.429044290     -1264.310436122        12.600866780
       134          134.000000         3.777413439       294.848942983     -1268.108721394     -1264.229056110        12.599908240
       135          135.000000         3.867730278       301.898694071     -1268.251676186     -1264.280454345        11.961074445
       136          136.000000         3.964209018       309.429417119     -1268.374097149     -1264.305113649        12.575400069
       137          137.000000         3.843041082       299.971559667     -1268.212354211     -1264.263233129        12.614089467
       138          138.000000         3.938551770       307.426720670     -1268.368042321     -1264.322095977        12.560318805
       139          139.000000         3.837631338       299.549297849     -1268.232047889     -1264.285686330        11.941259764
       140          140.000000         3.904433331       304.763579374     -1268.289108560     -1264.274604287        11.955841910
       141          141.000000         4.089881045       319.238844908     -1268.528206725     -1264.326846326        11.990497373
       142          142.000000         3.863110226       301.538072307     -1268.243559070     -1264.267520430        12.595010627
       143          143.000000         3.873541027       302.352256568     -1268.278767855     -1264.290870672        12.582066968
       144          144.000000         3.921063203       306.061636945     -1268.318100324     -1264.281227561        12.563595772
       145          145.000000         3.889559994       303.602629453     -1268.243643643     -1264.236796138        12.617876660
       146          146.000000         4.054432256       316.471862108     -1268.464861288     -1264.291615622        12.008073639
       147          147.000000         3.883274333       303.111997349     -1268.296803925     -1264.293149102        12.596517831
       148          148.000000         3.849750623       300.495278110     -1268.257218666     -1264.285541657        12.645813547
       149          149.000000         4.020702383       313.839050591     -1268.494586552     -1264.350370205        12.581762660
       150          150.000000         3.854542485       300.869310637     -1268.263747958     -1264.284068190        11.939434685
       151          151.000000         3.845841454       300.190144842     -1268.322319565     -1264.349740223        12.605478961
       152          152.000000         3.798340404       296.482413457     -1268.262445897     -1264.335772467        12.584947482
       153          153.000000         3.758545640       293.376202228     -1268.161223278     -1264.272770038        12.019667331
       154          154.000000         4.013881848       313.306668433     -1268.548277437     -1264.402871940        12.581881922
       155          155.000000         3.904625370       304.778569148     -1268.422203085     -1264.384376166        12.599635415
       156          156.000000         3.809816150       297.378161779     -1268.314152538     -1264.369481894        12.631239332
       157          157.000000         3.892964097       303.868339368     -1268.450392924     -1264.420920908        11.987695381
       158          158.000000         3.767601469       294.083062019     -1268.276610313     -1264.370847096        11.954230003
       159          159.000000         3.848158374       300.370993813     -1268.386055353     -1264.398096594        11.992459580
       160          160.000000         3.791083929       295.916003698     -1268.343419535     -1264.410889991        12.594705142
       161          161.000000         3.690850305       288.092190250     -1268.211424546     -1264.377524934        12.627473958
       162          162.000000         3.941634347       307.667333618     -1268.530126502     -1264.443825366        12.611967921
       163          163.000000         3.904939652       304.803100635     -1268.431514507     -1264.380229653        12.630313229
       164          164.000000         3.845371889       300.153492634     -1268.306171485     -1264.312782302        11.969830144
       165          165.000000         3.865002347       301.685763272     -1268.383929197     -1264.369241677        12.594175093
       166          166.000000         3.718061636       290.216191837     -1268.189370582     -1264.319981705        12.628423627
       167          167.000000         3.869092352       302.005011788     -1268.385745859     -1264.363699686        12.609652013
       168          168.000000         3.862760949       301.510809164     -1268.388260627     -1264.370886332        12.588400070
       169          169.000000         3.723933594       290.674532075     -1268.214229844     -1264.334053718        12.600592762
       170          170.000000         3.882568135       303.056874501     -1268.464037964     -1264.423610446        12.623620130
       171          171.000000         3.835643012       299.394097522     -1268.410925937     -1264.415780870        12.628718857
       172          172.000000         3.839680646       299.709258234     -1268.398536757     -1264.397721895        12.576611791
       173          173.000000         3.853638817       300.798774106     -1268.446709042     -1264.430302085        12.629437461
       174          174.000000         3.670577164       286.509754428     -1268.145678447     -1264.310739825        12.580704667
       175          175.000000         3.851010492       300.593618131     -1268.409319583     -1264.392382417        12.578692671
       176          176.000000         3.931151046       306.849051362     -1268.495425728     -1264.396732334        12.653307170
       177          177.000000         3.834707754       299.321095281     -1268.359128343     -1264.355256072        12.593998827
       178          178.000000         3.927376291       306.554409961     -1268.499854067     -1264.401692659        12.619170535
       179          179.000000         3.827955943       298.794077355     -1268.343563590     -1264.343195567        12.651685771
       180          180.000000         3.883999682       303.168615024     -1268.437218886     -1264.379193219        12.628171470
       181          181.000000         3.949645973       308.292687312     -1268.537437568     -1264.412123026        12.636913743
       182          182.000000         3.736632192       291.665731029     -1268.236346075     -1264.322425091        12.629798122
       183          183.000000         3.859186018       301.231765154     -1268.406336048     -1264.368279161        11.982011579
       184          184.000000         3.960457366       309.136579010     -1268.512402475     -1264.371449592        11.987824734
       185          185.000000         3.946087806       308.014951811     -1268.476933973     -1264.348694302        12.621082220
       186          186.000000         4.027686826       314.384226790     -1268.582179560     -1264.370654690        12.628931053
       187          187.000000         3.830752113       299.012334625     -1268.327826874     -1264.311553144        12.630316749
       188          188.000000         3.844158956       300.058816169     -1268.316323423     -1264.285004904        12.626830004
       189          189.000000         3.975783238       310.332851847     -1268.500914287     -1264.336309205        12.602933548
       190          190.000000         3.835550452       299.386872719     -1268.310916411     -1264.284874107        12.013807084
       191          191.000000         3.897332001       304.209279511     -1268.428577280     -1264.339107621        12.605529312
       192          192.000000         3.894985251       304.026102145     -1268.393643867     -1264.304864777        12.000131369
       193          193.000000         3.894416781       303.981729796     -1268.338161270     -1264.248296804        12.586135205
       194          194.000000         4.042539859       315.543591790     -1268.547699429     -1264.308025359        12.631950852
       195          195.000000         3.847997550       300.358440626     -1268.278194818     -1264.231368178        12.625947513
       196          196.000000         3.789661224       295.804953356     -1268.225162901     -1264.235041687        12.629038434
       197          197.000000         3.878668597       302.752493030     -1268.355836047     -1264.275091746        12.640333593
       198          198.000000         3.811765564       297.530324732     -1268.239084676     -1264.223634960        12.622572832
       199          199.000000         3.921023006       306.058499340     -1268.396784347     -1264.270477644        11.962180723
       200          200.000000         3.852027200       300.672978046     -1268.285435825     -1264.226522193        12.000874139
       201          201.000000         3.789008294       295.753988384     -1268.233018046     -1264.235562584        12.683458142
       202          202.000000         3.953872440       308.622587489     -1268.418821739     -1264.254943231        12.579812292
       203          203.000000         3.823401414       298.438570059     -1268.237037624     -1264.202067244        12.617115151
       204          204.000000         3.779583526       295.018330762     -1268.209832863     -1264.217172329        12.579912115
       205          205.000000         3.823306253       298.431142202     -1268.282060396     -1264.244197979        11.963629801
       206          206.000000         3.765735676       293.937426101     -1268.177926745     -1264.196183386        12.595624570
       207          207.000000         3.940251699       307.559409939     -1268.399288920     -1264.241584637        11.961433768
       208          208.000000         3.884354718       303.196327593     -1268.342444325     -1264.239175648        12.027210824
       209          209.000000         3.762410387       293.677868081     -1268.186820388     -1264.204081045        11.965190049
       210          210.000000         3.883092045       303.097768681     -1268.365694849     -1264.260889336        11.957925536
       211          211.000000         3.808632337       297.285758288     -1268.271311409     -1264.239589825        11.971673407
       212          212.000000         3.827264321       298.740092284     -1268.242952240     -1264.191257928        12.625648461
       213          213.000000         3.831794931       299.093732576     -1268.279600614     -1264.222055019        12.613687042
       214          214.000000         3.716182652       290.069526227     -1268.101061995     -1264.157852670        12.581821300
       215          215.000000         3.892463799       303.829288286     -1268.365115696     -1264.244377727        12.612362437
       216          216.000000         3.886366027       303.353321923     -1268.319731660     -1264.203831557        12.624830898
       217          217.000000         3.781224857       295.146446120     -1268.172434636     -1264.160448549        12.647661652
       218          218.000000         3.838021988       299.579790331     -1268.265796468     -1264.195823103        11.967293926
       219          219.000000         3.738642234       291.822626368     -1268.110279374     -1264.138527673        11.975908052
       220          220.000000         3.824609834       298.532894240     -1268.230905569     -1264.172066928        12.029203031
       221          221.000000         3.887244478       303.421890083     -1268.349076642     -1264.226486967        11.988480195
       222          222.000000         3.753415580       292.975771372     -1268.170553162     -1264.180702787        11.968258664
       223          223.000000         3.878165522       302.713225090     -1268.337869116     -1264.222212477        12.003350452
       224          224.000000         3.898302176       304.285007284     -1268.361564971     -1264.224711367        12.588315874
       225          225.000000         3.864858535       301.674537905     -1268.310044078     -1264.205586462        12.655739594
       226          226.000000         3.921684786       306.110155116     -1268.440298234     -1264.277977682        11.981314372
       227          227.000000         3.781579229       295.174106943     -1268.211652320     -1264.188421450        12.585916519