    2698
 i =    10005, time =    10005.000, E =     -1268.3614223137
  C         9.4562395687        8.9707035388       13.6234430049
  O         8.8715852478        9.8257708755       14.2238549101
  O        11.8201488660       10.9954550329       13.9403171612
  N        10.0311209130        8.1746486333       12.9706558941
  H        12.7085449374       11.0549015623       14.3134008249
  H         9.5876215480        7.3094065709       12.5114300419
  H        12.1037117283        8.2439279924       11.4580647085
  O        12.5105007716        8.6233338051       10.7417492563
  H        13.5088337810        9.7694794311       11.4754286897
  H        12.5444078526        7.8720946900       10.0949152695
  O        25.9349220241       12.8835599194        0.5747287105
  H        26.4227982156       13.6148553750        0.0901736005
  H        25.0464569211       13.3494816495        0.5776001776
  O        -3.8158598532       21.4642502002        9.7587218806
  H        -4.5429271669       22.1207221301        9.6353673195
  H        -3.2321544673       21.7242232319        8.9969341691
  O        -0.1693202735        8.0593180364       -7.9638771960
  H         0.6784114786        8.5482808282       -7.9557194609
  H        -0.8216612867        8.8021382358       -7.7979180315
  O        37.7616957742       22.6422911260       -0.2712036445
  H        38.7280112218       22.7092732134       -0.4469257834
  H        37.6672325915       23.4820490434        0.3071951059
  O        23.3034658260        7.7591723352        9.5682253187
  H        23.5873005170        8.3228984086       10.2621982967
  H        22.6756915511        8.3338893248        9.0880550629
  O        11.2639878268        0.3833666210       12.6992822158
  H        11.7572177485        0.5363859117       13.5033657422
  H        10.8187238999        1.2708377624       12.6045954520
  O        -4.8171155619       21.0813579861        3.5679136537
  H        -4.2375131741       21.8069084692        3.1957391617
  H        -5.1351819100       21.5928808332        4.3529045683
  O        -1.7398853578        9.2806951070       -0.5724593008
  H        -2.1983642093        9.4792967994        0.2523507717
  H        -2.3246156243        8.5822685046       -0.9612385654
  O        22.3170638439       -1.8529426063        5.3228437629
  H        23.1212172375       -2.1913033612        4.7795683832
  H        22.4927060646       -0.9035798379        5.1686454840
  O        25.9289992801       20.5622117559       -5.1630458340
  H        26.2707229933       20.9687274347       -5.9921815289
  H        25.9899124504       21.3501794981       -4.5883924079
  O         0.2502395872        9.7720599457        3.2511574572
  H         0.4075254146        9.7416954235        4.2153220442
  H        -0.7183669131        9.8160907027        3.2706617657
  O        12.3512054489       19.9686767516       -4.6028399616
  H        12.5477117503       20.7354819525       -3.9681590939
  H        13.2904664936       19.6533627030       -4.6347293168
  O        21.5792450484        3.5915447323       -2.5318742771
  H        21.0345109265        4.3991829243       -2.5820605739
  H        21.6663170639        3.3389429608       -3.4613799900
  O         1.6717945128        3.6449005840       -8.2741242688
  H         1.5414691467        4.5810964114       -8.4725505191
  H         2.6161718289        3.5366700230       -8.2456258692
  O        21.2219343692       -1.6881896121       -7.6942295778
  H        22.0575562359       -1.4450213316       -8.1529511646
  H        21.1962629686       -0.8978073096       -7.1004382806
  O        18.0128889792        1.4501579796      -11.9248509768
  H        18.2120107926        2.3779440233      -12.2821157962
  H        17.0714214619        1.4085379795      -12.2445332460
  O         5.3722989867       24.5434518974        1.3641838504
  H         5.5315630561       25.5200868514        1.2817419783
  H         5.3898267142       24.5239957936        2.3607009373
  O        27.4607983755       -0.5549899224      -14.3542945378
  H        27.8428339375       -0.9512551130      -15.1379518930
  H        27.7791429122        0.3624134437      -14.4419808084
  O        23.5763311823       27.1556145854       -1.4224319215
  H        24.0772910466       27.9711000798       -1.3233927945
  H        23.3272739033       26.9785349535       -0.4937395200
  O        16.1948630864       14.5870143594       -6.6137630755
  H        16.4287062662       14.3860513586       -7.5201828206
  H        16.0038480505       15.5295285909       -6.7135262285
  O        12.0431570956       15.1468515592      -13.2672805246
  H        11.8969893908       15.9869514636      -12.7442676539
  H        11.4085062697       15.2954004558      -13.9750633602
  O        22.4973148236       28.2168960482      -17.6003824851
  H        22.2734441437       28.7510302568      -18.3989013751
  H        21.9032750245       28.6678982337      -16.9589939762
  O        17.8934938295        0.4159396365       -9.5330668913
  H        17.0275856565        0.6795955596       -9.2890216423
  H        18.0594196273        0.8674688686      -10.3990346070
  O        25.4659635892       -6.5197808138       -2.4698345809
  H        24.7227739162       -6.1188087085       -1.9726995592
  H        25.9636695979       -5.7102397072       -2.7319046875
  O        -1.4213562907        6.7666425963      -10.3113915901
  H        -1.2202312699        7.0323456364      -11.2507969470
  H        -1.4929294595        7.6969703752       -9.9732392793
  O        20.4599404623       11.8437791017       -0.6660484769
  H        19.7433604209       12.0735085926       -1.2709271832
  H        21.0123017806       12.6462269485       -0.6742356767
  O        15.3359782494        7.2412726857        2.1661887014
  H        16.0769496044        7.8693260173        2.0406601157
  H        14.6316676660        7.7111471436        1.6448885670
  O         5.2251152376       33.3897686685       -2.1872339854
  H         4.9502571797       33.1314095963       -3.1349968376
  H         4.6848815699       34.2093859274       -2.0882895061
  O        23.7262517010        2.2816586028      -13.7819584508
  H        23.9041772142        3.1694405017      -14.0419384444
  H        22.8334608558        2.3387362166      -13.3600184649
  O        18.7764329068       -2.0968198825       -8.9112045332
  H        19.5836171480       -1.7486002450       -8.4200889892
  H        18.4702436418       -1.1564599436       -9.1780384873
  O        32.3941919601       -5.4977139143        4.5602119105
  H        32.6237452810       -4.6723755729        4.1586443066
  H        33.0558895002       -5.6315485341        5.2654301065
  O        -1.8869234134        5.2763089161       -7.6871724385
  H        -1.8830937781        5.7023398768       -6.8041299622
  H        -1.1285683616        5.7004579521       -8.0965949193
  O        25.6818833003       -3.3373755651        7.5089894163
  H        25.7818545617       -2.3871688539        7.1666736675
  H        26.5104627648       28.6201416118        8.0292183031
  O         4.6437345834       -4.8425564427       -3.1072836809
  H         5.1294376980       -4.2565649693       -3.7838533015
  H         5.0342617353       -4.4288164849       -2.2900140921
  O         8.5990275902        4.4523319096       -3.7555368401
  H         7.8546134269        5.0881340142       -3.8299058133
  H         9.3216357307        5.0185354263       -3.4645714993
  O         9.7711660694       -7.2668860349      -15.7887780524
  H         9.6153643121       -8.1997185770      -15.5315301610
  H         8.9457458148       -6.8338390788      -15.5220523490
  O        24.8175643831       16.5248392625        6.1803476578
  H        25.7285248951       16.8042480893        5.8008647839
  H        25.0399162118       16.8718199204        7.1239720398
  O        23.8355768731        5.0614888420       -1.9356178567
  H        23.2793927603        4.2971665665       -2.0886991780
  H        23.2071287964        5.7749541956       -1.7568333931
  O        27.1004819729       -2.3053617911       -7.2339797403
  H        27.4187171103       -2.5417967514       -8.1108380800
  H        27.5826357969       -3.0581705525       -6.7600130670
  O         5.9528231062        1.9055623444      -14.3896712052
  H         5.2167209382        2.5662150559      -14.3158325257
  H         5.6104890788        1.3993775282      -15.1611957887
  O         9.7861332438        3.1159529494        2.7867810083
  H         9.7150847989        4.0683831501        2.6047588686
  H         8.8425212070        2.9374200603        2.9964042780
  O        11.9221173859        3.8163298664       -3.7132080938
  H        12.2453160479        4.6872973315       -3.9405724688
  H        11.4740697760        3.5107193593       -4.5101181635
  O         4.1201762505       -0.0124136271      -15.5056995022
  H         4.4317349961       -0.9300228125      -15.2828426059
  H         3.6587045767       -0.2734742021      -16.3614925262
  O        25.6116868977        1.3350556921        3.5700039288
  H        24.9015071736        1.9137956190        3.9183731386
  H        25.6818004254        1.7693987860        2.6579177146
  O        13.3633220171       11.8758214489        0.8550801433
  H        13.0897891986       12.7864879364        0.5214168703
  H        12.6060150786       11.3592057628        0.5607971805
  O         5.2978967442       14.3361920383       -8.7899473323
  H         4.3545751275       14.4641333383       -8.6629847952
  H         5.6765230329       14.7238625378       -7.9604960351
  O         9.2051459339       16.4719640994       -9.7336993548
  H         8.5618109319       16.7192118901       -8.9961241867
  H         8.5512049148       16.2387160303      -10.4155917964
  O        27.4230359903        1.8127262958       10.5563246134
  H        27.6353613503        2.4550404416       11.2694149396
  H        28.2982906965        1.3515971122       10.4757788326
  O        17.3885111616       11.7480567849       12.7774273751
  H        16.4963897559       11.3846580891       12.6461805594
  H        18.0745808349       11.0646496253       12.9458756984
  O        11.9977749692       -9.0921250789      -13.1563830139
  H        11.3916729610       -9.5191925571      -12.5086806813
  H        12.7341107401       -8.8674186820      -12.5601221358
  O        16.9962072487       14.7980764474       -1.7020814173
  H        16.6676429032       15.6047969733       -2.0755586374
  H        17.7827124660       15.0950854282       -1.2472470682
  O         6.1147311393        5.2784797185        8.6843396823
  H         6.8058733751        4.5721032942        8.6024835274
  H         5.3235079186        4.9267112565        9.1920382809
  O         7.4150922970       18.3209041736        3.4348726087
  H         8.3872835541       18.2877744571        3.5516577408
  H         7.1260534708       17.5699230777        3.9756446468
  O        13.2594933305       22.3475661990       -2.7512859061
  H        13.9544106080       22.5026104249       -2.0510323070
  H        12.5549171988       22.8393083993       -2.2840619976
  O        11.5807532063       -3.5996728264      -11.6485590157
  H        11.0513536325       -4.0749365683      -12.3375150982
  H        12.3647195978       -4.1965865579      -11.6817764482
  O         5.2008943679       12.0119496127        7.0897708752
  H         5.5775258285       11.2627461996        6.4637174897
  H         5.1853219396       11.4862269133        7.9647900706
  O         3.9699843212       -0.0643839974        7.2098398577
  H         4.4463138671        0.6097454179        7.6753687483
  H         3.2020620985        0.4219190874        6.8632630123
  O        18.8832251999        3.6785872205      -13.7420364173
  H        18.8386613944        3.0319760185      -14.4943028589
  H        18.3503089243        4.4128974943      -14.1500731984
  O        25.0217169859       18.1235735633      -13.1381111894
  H        25.9285909954       17.8718464508      -12.9074138109
  H        24.9618317266       18.9496412074      -12.5510993118
  O         8.4830013995       -1.8837979595        2.3816447324
  H         7.5157943184       30.4656226463        2.4038265372
  H         8.6819087828       -1.4432897150        1.4945591930
  O         2.1446853329       20.5658912101       -5.6714623572
  H         2.2040771561       21.4236830777       -5.2029392842
  H         1.7858932677       19.9865983383       -4.9387087857
  O        22.9764279085       18.2487922884        5.0155413105
  H        23.3118485018       18.9889654254        5.5472043518
  H        23.5386723954       17.5101582017        5.2015218869
  O         6.8799337243        5.7351622492        0.4233436566
  H         5.9102993358        6.0077527303        0.3712275260
  H         7.2241782502        6.4230919558       -0.1778250511
  O        26.9942192442        4.6394849647        7.4030941444
  H        26.7939445989        5.4856546114        7.8846345036
  H        26.9770570635        4.8718657504        6.4871562246
  O         3.0145476100       -2.3935569636       -1.5158711669
  H         3.3558857832       -1.7829525251       -0.8178053122
  H         2.6715154610       -1.7559089514       -2.1895958825
  O        17.3281087411       20.0711549705        2.6487362027
  H        17.6961313865       20.6309789697        3.3201623415
  H        16.3877432406       20.3521767043        2.5506703269
  O        20.9845894517       30.0800831910       -1.5421690829
  H        20.7203834923       30.8364949232       -0.9601057968
  H        21.9523104791       30.2405271647       -1.5963251075
  O        19.5879738511        7.2223214919       -5.9364613267
  H        20.4168093134        7.7045617013       -5.6483192938
  H        18.9830593472        7.6537483923       -5.2730698654
  O        10.9341313382       -1.0587932627       10.3948001164
  H        10.8859206432       -0.5205668165       11.2540507033
  H        11.7690687570       -1.5692073410       10.7070900115
  O        -3.7669877621       26.2841154911        7.6634596296
  H        -3.0459582444       25.5985954287        7.5156707732
  H        -3.2562978238       27.0957292740        7.7811170044
  O        -4.0802781915        5.7609640018       -0.9603424972
  H        -4.5798030488        6.4908661853       -1.4168764530
  H        -3.2040427894        5.9691097794       -1.3300851804
  O         6.1753607119       12.7456560504      -14.7773266030
  H         5.4824117238       13.3937658227      -14.6854625468
  H         6.9761791616       13.2755400538      -14.8620395181
  O         5.8538900785       -3.1240624900       -5.2881657273
  H         5.1409793034       -2.4619681662       -5.5178595887
  H         6.5313021188       -2.5036881175       -4.9246035572
  O        29.9998059245       14.3315880376       -9.7802653672
  H        29.3693570073       15.0357167622       -9.4383559522
  H        30.8363999853       14.7954438070       -9.5003600168
  O        12.9213501616        6.3366978946        9.0409043218
  H        13.0930444655        5.3537132788        9.3928123968
  H        12.5134461590        6.4318501337        8.2402441279
  O        12.1262371593        8.1727736908       -1.9097787792
  H        11.9737512272        7.9978414095       -2.8787338740
  H        12.1407532933        9.1676168555       -1.9294693819
  O         3.8199413379       16.5680557213      -11.1839801590
  H         3.6916919857       16.2948140887      -10.2261287599
  H         2.9793837562       17.0908284684      -11.3004938939
  O        20.9809842664        0.7631747990       -3.5794600983
  H        21.8020695455        0.9115343318       -4.0905713872
  H        20.9296639129        1.5983736187       -3.0929090856
  O        21.8563071046        6.9546602920      -11.5539348448
  H        21.0091547602        7.1526410840      -11.9459647914
  H        21.9695444591        7.7423515653      -11.0011111677
  O         9.3719742409       18.6611523748       -1.0191326191
  H         8.6430600647       18.4179984091       -0.4733036044
  H        10.1326214133       18.6191446575       -0.4648362771
  O        30.9283126366       -0.0039444746       -9.6266632479
  H        30.6715656810        0.4000755984      -10.5215838986
  H        31.0001095665        0.9024053250       -9.1887829539
  O        16.6098946968       20.0029969709       -7.4107568955
  H        16.6760099351       20.8466834746       -7.8332096890
  H        16.7435551018       20.2269113393       -6.4678730491
  O        15.3524606133       13.7791312259        4.0240016830
  H        16.1900583182       13.5507044385        3.5222660380
  H        14.8252834573       12.9678839970        4.0101186781
  O         8.7143998059       15.0231603896       13.4408473011
  H         8.1895244081       14.9135600849       14.2449422527
  H         8.9780210652       14.1252249067       13.1178240029
  O         9.7105281713        1.4889495895        5.0748951620
  H         9.8076816514        2.2326850906        4.4603660871
  H         8.9348621527        1.7162316105        5.6033654339
  O        18.9879588497       13.3159375925       10.2125702340
  H        19.6276478221       13.4804307392       10.9725033053
  H        19.6140394113       13.0807651997        9.4827443445
  O        20.3471959551       25.4537306763        6.8959281862
  H        20.5853940652       26.2003240088        6.3736909540
  H        20.4312212331       25.7801177171        7.8188409704
  O         8.1660431749        1.9702445698       -4.4137173161
  H         7.2112657597        2.2462723700       -4.5803169217
  H         8.4553301383        2.9025457608       -4.2120935051
  O         3.5395289573        2.0401652399        2.2088214655
  H         3.5616999045        1.1929051142        1.6965362497
  H         2.7916343082        2.4910974962        1.6974586804
  O         0.1593226863        3.0986829976        6.2078800921
  H        -0.7612699814        3.1962907490        6.5130838955
  H         0.2206677591        3.7520116124        5.4956293954
  O         7.2517031214       -1.8943462198       -8.2842468986
  H         6.5408169472       -1.7994852367       -8.9464462535
  H         7.1281632803       -1.0831288407       -7.7479267559
  O        11.7011985974       20.2567676962        6.2005016700
  H        12.3211381270       20.1654555999        5.4968306924
  H        11.3406930740       19.3704303848        6.3066619522
  O        21.1780158976       23.9960189391      -12.7821657945
  H        20.8329245620       24.7688137381      -13.3077025656
  H        21.2916215378       24.4520435283      -11.9040884627
  O        12.3055216540       -2.2947246243       -9.2928000953
  H        12.3262644354       -2.8095854771      -10.1077083677
  H        11.8562855698       -1.5142643704       -9.5450773121
  O        22.5576474340       25.3329837751       -6.7884872800
  H        22.4554061989       -5.7476023093       -7.1261166688
  H        21.7093376161       24.9509615918       -7.1199873197
  O        19.6024785764       26.4724066638        3.3779191720
  H        19.6788779050       27.4739917085        3.2239449255
  H        18.6467509404       26.3905069366        3.2390046996
  O         7.0507989987        1.4497063050        8.5785329892
  H         7.2638918607        1.0858771514        7.7047017541
  H         6.0591752592        1.6193283727        8.5047790618
  O        24.5441341709       -2.1499023463       -1.3989061146
  H        24.6366185719       -1.7181699668       -2.2877696086
  H        24.3028793278       30.7138146231       -0.9061743319
  O         1.5417763192       12.5560752154        3.1205582659
  H         1.4007301470       11.5885197543        3.2646637298
  H         1.4672435889       12.8664366311        4.0455797010
  O         6.7623272350       11.9344938668       -2.8200553341
  H         6.1827912213       12.5043372646       -2.2714436147
  H         6.6812517635       12.3319502268       -3.6941551736
  O        18.8898486211       13.3331565856        5.9111680938
  H        19.3059463741       13.1178448561        5.0856204620
  H        19.5793362211       13.0593213966        6.6591796239
  O        13.9129015824        7.4462368619       -7.7432683214
  H        13.7023419939        7.8445147288       -8.6198463774
  H        13.7545015512        8.2570986476       -7.1615982660
  O        -0.1642405689       13.8983539750      -12.6632371124
  H        -0.9200145501       14.5385412232      -12.8489976193
  H         0.5677879554       14.5508315508      -12.9396066815
  O        20.5896792638        4.4137169316        1.2037996565
  H        19.9791089384        5.1901509431        1.0951392563
  H        21.2722889633        4.8078551929        1.7694975811
  O         9.0326484278        0.5047303132       -9.8464645804
  H         8.2083366705        1.0414630442       -9.6895241837
  H         9.1738172153        0.6783028911      -10.7876900747
  O        15.6578316604        1.5358725569        9.3137874108
  H        16.2832479077        1.1847958633        8.6541758919
  H        14.9195296431        0.8838406160        9.2281004884
  O         5.8138049262       19.5986487598        1.5202166240
  H         6.0324355376       20.4910259125        1.8246895728
  H         5.8521075793       19.0941664437        2.3615875305
  O         5.2416132607       20.3119164640        9.3861025417
  H         5.5972036607       20.4058004709       10.2912898902
  H         5.7840843835       20.9999711380        8.9257457217
  O        20.0213752667       -5.0050307757       -9.5779963609
  H        20.4483459096       -5.1001687194       -8.6764853933
  H        19.2290351651       -4.4896071203       -9.3315472602
  O        15.2735125850       29.3639095621       -7.7288326902
  H        15.0296371174       -1.6925756704       -7.8298889516
  H        15.0808040212       -2.9519938642       -8.6510273371
  O        -0.2544167603       20.5256457632       -6.7456793313
  H        -0.4117406670       21.4802458533       -6.7017314020
  H         0.6874610375       20.4400815970       -6.4305299257
  O         5.2229821288       -5.3144297091        8.8279791915
  H         5.2510565543       -4.3827117522        9.1950649202
  H         5.7495087760       -5.1592918375        8.0294171992
  O         8.8475250930        5.6154541963      -13.5699717212
  H         8.7201480497        4.6246591724      -13.4632167606
  H         9.8007414823        5.6560875807      -13.4320697487
  O        24.3571823088       -4.4389450397       -5.5242799502
  H        24.2040665851       -3.5896930427       -5.9396865409
  H        23.5971543883       -4.5262559667       -4.9406109880
  O         7.8407562762        7.9800341964       -1.4483762467
  H         7.3251388103        8.1084113338       -2.2618644560
  H         7.9390584320        8.8982134258       -1.1348991645
  O        13.8934186790        4.3400438512       14.7992949299
  H        13.5227762041        5.3355944682       14.6196303725
  H        14.3392532034        3.9659694052       13.9737156635
  O        26.1759427433       -3.2936550980        0.7622753247
  H        25.8962832657       29.4615778245        0.1917746775
  H        26.3935916581       -2.7912348524        1.5889906116
  O        -5.6981606376        2.2587755912        1.1358182827
  H        -5.7560440942        1.9059756798        0.2105669204
  H        -4.7533508125        2.5112847895        1.1623463956
  O        24.2038165692       22.5096959488       -7.1106265448
  H        23.9991801921       22.9274975753       -6.2487824937
  H        24.4708963223       23.2879842461       -7.6430771466
  O         1.5200221522      -11.2347699669       -3.0731446056
  H         2.1607424484      -10.4926258176       -3.2962289883
  H         0.7304906114      -10.6117901181       -3.0186436578
  O         7.3592922446        4.2827860331        2.6248143458
  H         7.2042969641        4.6544491697        1.7360137524
  H         6.4905150237        4.3349412696        3.0076393411
  O        29.8783582690        5.7164074763        6.4053948896
  H        29.5018633397        6.5740988423        6.1070536049
  H        29.1235899792        5.1287857156        6.2056061235
  O        18.0445295404        6.4487321570        8.0259571097
  H        18.3478554665        6.3468894373        7.1119806406
  H        17.6168270525        5.6307356687        8.3561028337
  O         1.8750610992       14.6631792448        0.0681461388
  H         1.7185961330       15.6049971485        0.2197843714
  H         2.7793175368       14.5388329447        0.3906211015
  O         6.8760136775       17.9500862423        7.1824048499
  H         7.7303905078       17.4867029168        7.4666041329
  H         6.5203225223       17.2600571259        6.5483946755
  O         3.9190334537       30.5920418991       -6.1792747584
  H         3.2395004907       29.9159536386       -6.0197350716
  H         3.4833433126       31.0399772087       -6.9518840369
  O        35.1447150269       24.7749547914       -8.6717382823
  H        35.2813000911       25.0381267327       -7.7463047537
  H         3.7557573532       25.3680785198       -9.1597934850
  O         1.9213989240       28.6900169018       -5.9972506022
  H         1.0229719802       28.7411458961       -6.4412964985
  H         1.7259669538       29.1506697593       -5.1692741460
  O        -4.5699308885        1.7624855187        5.5896708960
  H        -5.1968530052        1.6185272129        4.8504962839
  H        -4.6436901159        2.7463192733        5.5885553585
  O        15.6961323121       -0.5231163602       -4.3011640467
  H        16.1846445393        0.2660518166       -3.9536308341
  H        16.1060137109       -0.5401123609       -5.2062877776
  O        13.8333067149       22.0309624015       -9.5893377330
  H        14.8004770425       21.9222783263       -9.4832069551
  H        13.5410571487       21.7773800599       -8.6910811322
  O        10.9605376762       10.1596830574        0.4712195304
  H        10.1174467656       10.4572195371        0.0657991529
  H        10.7359539363       10.1523661939        1.4394148506
  O         6.5294804810       27.7226722353        6.5033803920
  H         6.9396097040       28.4516753138        6.9728154452
  H         5.9545589571       28.2564835146        5.8509527671
  O         7.2512713422       25.2632293295        6.2340507464
  H         8.0921281054       25.1430678530        6.7894299021
  H         7.1251416385       26.2365314311        6.4355920324
  O        24.4550992471       -4.9071315493      -16.4342177513
  H        24.0716646913       -5.7387102579      -16.8288010662
  H        23.7997748546       -4.2616041469      -16.8410326176
  O         3.0909352617       15.7019077196       -8.5970120278
  H         3.1195950304       16.2453687991       -7.7572109741
  H         2.3695399306       15.0991852198       -8.3646941891
  O        18.6222109319        4.5978793456      -10.0997300782
  H        19.3785734085        4.2962808591      -10.6474554191
  H        19.0529569539        4.5924004265       -9.2141219850
  O        17.4361989172        8.3308596803      -10.6172984817
  H        17.0518871114        9.2666874286      -10.6610959619
  H        17.8185649051        8.3946021221       -9.7118047218
  O        26.0237678629        3.5912355693       -8.9049755460
  H        26.2133400103        3.7685172605       -7.9441634774
  H        26.6225268561        2.7852258814       -9.0131338730
  O        15.3908678610        3.1520556529       11.1361242739
  H        15.5680715292        2.6343471569       11.9567680324
  H        15.4582879894        2.3978844520       10.4676831856
  O        17.6635910738       19.7840995082      -12.9081328744
  H        18.1948228697       20.3465056594      -13.5396877896
  H        17.8916484911       20.2299682202      -12.0829319356
  O        16.8818448633       17.3190180701      -12.1765963054
  H        16.4931111094       17.6936043224      -11.3362725668
  H        17.1472903905       18.1936953978      -12.5722452955
  O        19.3721617792        8.6812746938        8.9966090320
  H        19.2480412464        7.7487283891        8.8175809380
  H        20.0668498543        9.0580783533        8.4586066665
  O        21.8881725966        7.5677840202       -1.5393462321
  H        22.2305656904        8.4463182342       -1.2321751677
  H        21.8458478192        7.7199078624       -2.4802525654
  O         2.9951423857       -4.3209526080      -11.4809044621
  H         3.6829521213       -4.7614489536      -10.9563622995
  H         2.2306856856       -4.4015303796      -10.8638759164
  O        -4.4691487990       17.4595944397       -1.4253116976
  H        -4.4883275579       18.2601595149       -0.8482933742
  H        -5.2129154596       17.6935954757       -2.0368521804
  O        10.1170195409        1.7389688138        0.3284155502
  H        10.3562617526        2.2004758831        1.1557782556
  H         9.3654994738        2.2578257988        0.0365209972
  O         1.9920036499       12.0964564322       -6.5554525698
  H         1.7656047842       12.1215611559       -5.6199646483
  H         1.3205043044       12.7045186973       -6.9246884479
  O        13.2878329998       19.0214006929        4.0339013007
  H        13.7794545752       18.4027040370        3.3977646812
  H        13.2047297995       18.2764101548        4.6519094353
  O         8.7845690107       13.5753069679      -11.5034461622
  H         8.3440732354       12.9186574970      -10.9539612495
  H         8.3247469670       14.3973126854      -11.1855945398