#     Step Nr.          Time[fs]        Kin.[a.u.]          Temp[K]            Pot.[a.u.]        Cons Qty[a.u.]        UsedTime[s]
         0            0.000000         3.847680642       300.000000000     -1470.551582364     -1466.703426699         0.000000000
         1            1.000000         3.809308179       297.008135583     -1470.539364869     -1466.728731839        95.934337547
         2            2.000000         3.816586089       297.575587308     -1470.560740245     -1466.741989354        13.056734057
         3            3.000000         3.801481039       296.397860867     -1470.546682950     -1466.742204670        12.268587215
         4            4.000000         3.814567933       297.418233557     -1470.547549346     -1466.729160349        13.021871705
         5            5.000000         3.906198924       304.562614761     -1470.656363483     -1466.745512944        12.999018086
         6            6.000000         3.847342317       299.973621082     -1470.560275508     -1466.707439450        12.997085996
         7            7.000000         3.807676946       296.880949827     -1470.554621844     -1466.740619233        13.014701145
         8            8.000000         3.844968286       299.788520203     -1470.616256523     -1466.764136883        13.025050119
         9            9.000000         3.820594995       297.888157890     -1470.570546252     -1466.741974811        12.314378185
        10           10.000000         3.824222421       298.170984836     -1470.577754643     -1466.744737521        12.270036714
        11           11.000000         3.762927779       293.391899858     -1470.517410346     -1466.744881901        12.276420945
        12           12.000000         3.734808688       291.199481077     -1470.456859282     -1466.711669076        12.992680168
        13           13.000000         3.839112860       299.331978169     -1470.581634715     -1466.731370467        12.899771525
        14           14.000000         3.826384842       298.339586724     -1470.586225425     -1466.747914481        12.221764715
        15           15.000000         3.786505849       295.230259580     -1470.551205233     -1466.752008634        12.920267250
        16           16.000000         3.771738784       294.078885563     -1470.473122331     -1466.687944904        12.193281496
        17           17.000000         3.746742332       292.129935971     -1470.460906357     -1466.699996356        31.591095272
        18           18.000000         3.826603156       298.356608419     -1470.553547727     -1466.712059722        13.578323038
        19           19.000000         3.810728792       297.118899356     -1470.559685906     -1466.733355366        13.194385814
        20           20.000000         3.761130600       293.251775569     -1470.503456236     -1466.726021017        13.242848702
        21           21.000000         3.850691633       300.234764076     -1470.608053554     -1466.740364224        13.491199305
        22           22.000000         3.881425121       302.631024953     -1470.614211495     -1466.715085245        13.209630074
        23           23.000000         3.889432289       303.255336230     -1470.621994245     -1466.714147359        12.468791032
        24           24.000000         3.851445565       300.293547494     -1470.567983107     -1466.697404696        12.560320893
        25           25.000000         3.772609035       294.146738216     -1470.470376004     -1466.677926641        30.258972812
        26           26.000000         3.865890727       301.419823000     -1470.581731575     -1466.695302026        15.670440655
        27           27.000000         3.913703431       305.147734053     -1470.638731715     -1466.703775137        13.217529379
        28           28.000000         3.868710871       301.639706973     -1470.608539891     -1466.717849916        13.983974075
        29           29.000000         3.871079834       301.824412704     -1470.680884641     -1466.787097870        17.404290099
        30           30.000000         3.843129120       299.645122178     -1470.674939166     -1466.808373309        12.979228178
        31           31.000000         3.888175428       303.157339921     -1470.753027802     -1466.840682830        12.994539795
        32           32.000000         3.883811217       302.817066567     -1470.725760234     -1466.817035391        13.029493308
        33           33.000000         3.780325555       294.748387924     -1470.602540869     -1466.796562682        13.457403328
        34           34.000000         3.829356493       298.571283527     -1470.692230843     -1466.836497010        13.735930184
        35           35.000000         3.894952875       303.685771008     -1470.766258718     -1466.844195571        26.032526864
        36           36.000000         3.913187261       305.107488780     -1470.764065098     -1466.823017706        22.376202740
        37           37.000000         3.924794695       306.012509365     -1470.765615605     -1466.812194269        14.179410493
        38           38.000000         3.848090912       300.031988325     -1470.685415034     -1466.807923377        12.969475789
        39           39.000000         3.878476132       302.401095079     -1470.732017047     -1466.823367223        15.693131348
        40           40.000000         3.936175043       306.899824276     -1470.805969911     -1466.838831760        13.018295331
        41           41.000000         3.874866307       302.119640437     -1470.721063230     -1466.814429151        12.980340695
        42           42.000000         3.892054747       303.459806722     -1470.713498272     -1466.788867401        12.951019151
        43           43.000000         3.923715891       305.928396065     -1470.760118833     -1466.803003228        19.618388526
        44           44.000000         3.966093303       309.232522568     -1470.837761186     -1466.837420102        12.928080453
        45           45.000000         4.003650954       312.160856850     -1470.896157409     -1466.857376776        12.959407780
        46           46.000000         3.888168599       303.156807514     -1470.783889475     -1466.859689112        13.837712128
        47           47.000000         3.868012635       301.585266124     -1470.806263293     -1466.901320823        26.656571059
        48           48.000000         3.926600649       306.153317858     -1470.800046584     -1466.835606572        13.810130857
        49           49.000000         3.908944681       304.776698847     -1470.778105311     -1466.830391985        14.715795856
        50           50.000000         3.923351732       305.900002906     -1470.787379397     -1466.824315942        14.422298256
        51           51.000000         3.872635230       301.945685446     -1470.728230436     -1466.814930241        13.848761950
        52           52.000000         3.874133387       302.062495391     -1470.740874322     -1466.825121522        13.698579594
        53           53.000000         3.948852238       307.888253076     -1470.858209384     -1466.866765758        13.935361402
        54           54.000000         3.851174364       300.272402154     -1470.710407092     -1466.815655292        13.086015746
        55           55.000000         3.788377322       295.376176528     -1470.645649952     -1466.812727008        13.703279659
        56           56.000000         3.810714353       297.117773615     -1470.709275645     -1466.853061448        17.140648831
        57           57.000000         3.835402890       299.042715335     -1470.816628757     -1466.934772417        16.683801621
        58           58.000000         3.919306181       305.584575129     -1470.926180214     -1466.959453640        16.687137783
        59           59.000000         3.861297887       301.061723630     -1470.806601590     -1466.896901542        15.172928147
        60           60.000000         3.804732958       296.651409957     -1470.720476378     -1466.866370466        15.102331566
        61           61.000000         3.874797908       302.114307440     -1470.838503855     -1466.913365225        17.114445250
        62           62.000000         3.862500889       301.155520537     -1470.829591287     -1466.915770579        20.648577422
        63           63.000000         3.870428244       301.773608860     -1470.819907830     -1466.897177089        16.762787526
        64           64.000000         3.873266062       301.994870822     -1470.775780707     -1466.849223033        15.231637752
        65           65.000000         3.876174163       302.221612687     -1470.760330167     -1466.829868790        15.962367361
        66           66.000000         4.000586377       311.921914740     -1470.915352406     -1466.859457257        14.478873391
        67           67.000000         3.988482619       310.978196236     -1470.915485742     -1466.870629547        14.660294544
        68           68.000000         3.897186567       303.859929913     -1470.793941303     -1466.839302825        14.314585553
        69           69.000000         3.890854982       303.366262193     -1470.760429164     -1466.811044581        13.538653193
        70           70.000000         3.859987229       300.959532859     -1470.695881326     -1466.776283450        35.031077622
        71           71.000000         3.909726946       304.837691277     -1470.819797954     -1466.849371770        16.528007761
        72           72.000000         3.911675551       304.989622162     -1470.825306871     -1466.851824550        15.823498650
        73           73.000000         3.846112275       299.877715922     -1470.739426384     -1466.830397380       127.902558649
        74           74.000000         3.938127266       307.052037222     -1470.892197711     -1466.890036082       136.100087287
        75           75.000000         3.951977579       308.131933007     -1470.900156228     -1466.882994820        19.020410040
        76           76.000000         3.894130104       303.621620378     -1470.809722366     -1466.849245949        16.076703396
        77           77.000000         3.864318755       301.297257821     -1470.762352416     -1466.830527820        13.598297406
        78           78.000000         3.793316546       295.761283117     -1470.678154216     -1466.816185223        15.192364987
        79           79.000000         3.877334393       302.312074774     -1470.745580387     -1466.798452232        15.785767950
        80           80.000000         3.933507135       306.691809996     -1470.817237630     -1466.812769569        14.698329097
        81           81.000000         3.860817753       301.024288014     -1470.753072494     -1466.820115490        14.393953718
        82           82.000000         3.889137198       303.232328196     -1470.786566146     -1466.824113417        15.099123659
        83           83.000000         3.884275543       302.853269586     -1470.777064815     -1466.818287037        15.217956450
        84           84.000000         3.878140826       302.374951595     -1470.756062243     -1466.802227586        14.358415574
        85           85.000000         3.872746694       301.954376219     -1470.769607268     -1466.819971664        14.433373503
        86           86.000000         3.762818036       293.383343320     -1470.632306104     -1466.791420459        14.524612997
        87           87.000000         3.803893053       296.585923310     -1470.688822074     -1466.805707469        13.703925049
        88           88.000000         3.879194356       302.457094322     -1470.780408801     -1466.820830304        13.613795690
        89           89.000000         3.849248593       300.122251650     -1470.667457545     -1466.736653008        14.419485370
        90           90.000000         3.863586040       301.240128750     -1470.701801020     -1466.755489629        14.459482264
        91           91.000000         3.813846823       297.362009324     -1470.638215869     -1466.740479636        14.507492287
        92           92.000000         3.826142369       298.320681368     -1470.651251073     -1466.740067761        14.463922830
        93           93.000000         3.891154444       303.389610981     -1470.758617621     -1466.781263826        14.521100532
        94           94.000000         3.812340835       297.244588828     -1470.646975467     -1466.747275732        14.515381144
        95           95.000000         3.824386198       298.183754326     -1470.678195850     -1466.765308005        14.678465955
        96           96.000000         3.882288579       302.698347944     -1470.729856812     -1466.757918994        13.629496964
        97           97.000000         3.887087031       303.072478687     -1470.721811009     -1466.743914395        13.709756868
        98           98.000000         3.928998263       306.340257566     -1470.798176022     -1466.777194269        13.841126518
        99           99.000000         3.856749096       300.707058700     -1470.665950837     -1466.716037870        14.244510025
       100          100.000000         3.854091473       300.499846420     -1470.674478417     -1466.726053091        13.662537746
       101          101.000000         3.967608524       309.350662875     -1470.809647001     -1466.746516317        13.757428883
       102          102.000000         3.943108956       307.440454908     -1470.762207511     -1466.722356481        12.959676893
       103          103.000000         3.943274688       307.453376838     -1470.771025344     -1466.729775373        12.874906618
       104          104.000000         3.934962397       306.805275394     -1470.896931694     -1466.862746080        15.178563941
       105          105.000000         3.916265755       305.347516017     -1470.831737086     -1466.814990462        15.158202650
       106          106.000000         3.986642947       310.834758765     -1470.935456120     -1466.847053732        15.144505886
       107          107.000000         3.903430475       304.346761417     -1470.790065855     -1466.783578980        15.181262696
       108          108.000000         3.836440844       299.123643641     -1470.713690584     -1466.772913581        14.439018844
       109          109.000000         3.895129181       303.699517426     -1470.813591073     -1466.812850823        14.429263003
       110          110.000000         3.898536140       303.965154815     -1470.785501373     -1466.780065412        14.359291812
       111          111.000000         3.944163682       307.522690857     -1470.835186104     -1466.782819151        14.515692983
       112          112.000000         3.910623029       304.907558041     -1470.800822406     -1466.780678127        14.525507469
       113          113.000000         3.843845823       299.701002767     -1470.681949561     -1466.727274813        15.208067404
       114          114.000000         3.924517536       305.990899564     -1470.841890544     -1466.805236681        15.300501728
       115          115.000000         3.901164010       304.170047352     -1470.835172405     -1466.820547907        16.021162199
       116          116.000000         3.846746137       299.927137513     -1470.768086555     -1466.806565001        14.453510040
       117          117.000000         3.867167017       301.519334138     -1470.802884686     -1466.819637689        15.208830127
       118          118.000000         3.856129808       300.658773435     -1470.758311477     -1466.784798926        15.355825085
       119          119.000000         3.939256680       307.140096539     -1470.861855430     -1466.803903784        15.225298779
       120          120.000000         3.936514590       306.926298389     -1470.865842703     -1466.809297996        14.502021352
       121          121.000000         3.851537664       300.300728292     -1470.753173524     -1466.780276950        15.028591987
       122          122.000000         3.922871915       305.862592067     -1470.836583993     -1466.791029614        13.740332888
       123          123.000000         3.943110458       307.440571972     -1470.844537305     -1466.777399181        13.774333997
       124          124.000000         3.945392356       307.618489399     -1470.847056748     -1466.776276948        13.788403101
       125          125.000000         3.939108885       307.128573144     -1470.874434226     -1466.808567739        13.864998369
       126          126.000000         3.858830419       300.869337512     -1470.764626001     -1466.777675216        13.806859797
       127          127.000000         3.943017169       307.433298307     -1470.856141658     -1466.783643562        14.443689318
       128          128.000000         3.983255739       310.570661358     -1470.854724759     -1466.740597121        13.760414068
       129          129.000000         3.899245532       304.020465421     -1470.724834987     -1466.693319891        15.331514534
       130          130.000000         3.905891430       304.538639761     -1470.740869852     -1466.701322603        14.442516677
       131          131.000000         3.889732741       303.278762175     -1470.707293097     -1466.682519569        13.810223516
       132          132.000000         3.945106860       307.596229532     -1470.780932529     -1466.699393773        14.552774599
       133          133.000000         3.988050965       310.944540603     -1470.843150329     -1466.717250863        14.643755101
       134          134.000000         3.873440111       302.008441270     -1470.694287420     -1466.681582485        13.785832498
       135          135.000000         3.889682204       303.274821803     -1470.726922825     -1466.696581049        13.792160166
       136          136.000000         3.937770977       307.024257697     -1470.787990753     -1466.708157345        14.582443476
       137          137.000000         3.921801595       305.779140237     -1470.764937765     -1466.699661608        14.559229463
       138          138.000000         3.930268464       306.439293936     -1470.713689780     -1466.638533881        13.790044632
       139          139.000000         3.857366038       300.755161088     -1470.570517966     -1466.566862511        13.814524408
       140          140.000000         3.899449168       304.036342687     -1470.660659974     -1466.613534387        13.800752664
       141          141.000000         3.994437991       311.442530908     -1470.818180724     -1466.674657634        15.214378547
       142          142.000000         3.921636610       305.766276458     -1470.719434807     -1466.647289960        13.820675854
       143          143.000000         3.902448395       304.270189618     -1470.741063570     -1466.686699572        14.562995268
       144          144.000000         3.894783831       303.672590858     -1470.742872011     -1466.694774646        13.770531639
       145          145.000000         3.901635687       304.206823533     -1470.748437570     -1466.692097002        13.814252030
       146          146.000000         3.970125127       309.546880018     -1470.888172993     -1466.761942433        15.011292532
       147          147.000000         3.877990252       302.363211424     -1470.819072173     -1466.783576506        14.221720116
       148          148.000000         3.846998260       299.946795351     -1470.735736844     -1466.729864890        13.780498492
       149          149.000000         3.923312711       305.896960510     -1470.834929606     -1466.751382079        13.674005479
       150          150.000000         3.904768853       304.451113472     -1470.846685923     -1466.780316146        13.663185302
       151          151.000000         3.923278649       305.894304692     -1470.826676031     -1466.740436290        13.815744275
       152          152.000000         3.877879464       302.354573389     -1470.799873564     -1466.757682556        14.493382687
       153          153.000000         3.856618268       300.696858154     -1470.753889716     -1466.731633217        13.710993430
       154          154.000000         3.955320200       308.392553955     -1470.771162561     -1466.648878621        13.005671455
       155          155.000000         3.901872422       304.225281540     -1470.704937896     -1466.634770114        13.781455424
       156          156.000000         3.853498148       300.453585370     -1470.655938984     -1466.632839824        13.727108167
       157          157.000000         3.864683351       301.325685063     -1470.686618480     -1466.651051958        13.881145321
       158          158.000000         3.841235869       299.497507181     -1470.648056075     -1466.634674299        13.659821358
       159          159.000000         3.894614877       303.659417688     -1470.726511430     -1466.658502501        13.849885566
       160          160.000000         3.842954419       299.631500885     -1470.651128421     -1466.633544874        13.784571998
       161          161.000000         3.787850588       295.335107605     -1470.579047625     -1466.615370866        13.820077538
       162          162.000000         3.886468584       303.024258976     -1470.735401113     -1466.671930710        13.744355287
       163          163.000000         3.887999811       303.143647282     -1470.702095040     -1466.635917172        13.817722104
       164          164.000000         3.873544173       302.016554939     -1470.690093098     -1466.637209111        13.891394075
       165          165.000000         3.852728221       300.393554924     -1470.673581308     -1466.640371982        13.074824255
       166          166.000000         3.796282902       295.992567113     -1470.595790572     -1466.617916535        13.023612175
       167          167.000000         3.880149194       302.531542118     -1470.718512346     -1466.655684773        13.043240588
       168          168.000000         3.878244812       302.383059252     -1470.685517295     -1466.623510786        12.235747453
       169          169.000000         3.804851329       296.660639175     -1470.605238353     -1466.615567924        12.984915640
       170          170.000000         3.844425621       299.746209068     -1470.664927390     -1466.634655228        12.974443622
       171          171.000000         3.854759138       300.551903561     -1470.659056029     -1466.617436979        12.981772911
       172          172.000000         3.904480452       304.428627177     -1470.717074999     -1466.624730360        13.016648896
       173          173.000000         3.906141975       304.558174527     -1470.716956022     -1466.621948082        13.067048635
       174          174.000000         3.819475270       297.800853937     -1470.549327494     -1466.540005104        13.043171350
       175          175.000000         3.873585163       302.019750831     -1470.611982865     -1466.547594828        13.093707951
       176          176.000000         3.902420831       304.268040486     -1470.641550995     -1466.547375667        13.045059051
       177          177.000000         3.882521427       302.716502824     -1470.611740842     -1466.536521354        12.976258911
       178          178.000000         3.886155424       302.999842162     -1470.631228207     -1466.551444418        13.006866116
       179          179.000000         3.827731186       298.444559904     -1470.524363942     -1466.502093134        13.021431763
       180          180.000000         3.895254447       303.709284302     -1470.623415435     -1466.532728429        12.973142834
       181          181.000000         3.941743664       307.334004340     -1470.699951348     -1466.561878375        12.957608681
       182          182.000000         3.856415270       300.681030613     -1470.626455281     -1466.572821114        12.953866480
       183          183.000000         3.868868433       301.651991894     -1470.656030416     -1466.589075855        13.014989760
       184          184.000000         3.867474266       301.543290015     -1470.647127161     -1466.580712402        12.990487419
       185          185.000000         3.887091217       303.072805002     -1470.672054979     -1466.585180238        13.034112928
       186          186.000000         3.929431375       306.374026881     -1470.756452063     -1466.626396634        13.138866888
       187          187.000000         3.843636683       299.684696375     -1470.641788714     -1466.596696462        13.070876127
       188          188.000000         3.848887461       300.094094560     -1470.658479168     -1466.607329119        13.076616889
       189          189.000000         3.898978661       303.999657764     -1470.720719125     -1466.618680817        12.963758454
       190          190.000000         3.876930424       302.280577673     -1470.681597223     -1466.600815602        13.048617572
       191          191.000000         3.902241031       304.254021642     -1470.676420008     -1466.569545606        12.430264624
       192          192.000000         3.876589347       302.253984226     -1470.687335921     -1466.605337955        13.006674405
       193          193.000000         3.895059973       303.694121360     -1470.656288775     -1466.555055176        12.925232643
       194          194.000000         3.966615590       309.273244760     -1470.794292006     -1466.620734359        12.900691576
       195          195.000000         3.916341757       305.353441849     -1470.672560933     -1466.548501893        12.994680772
       196          196.000000         3.920831458       305.703499513     -1470.682858467     -1466.553540092        12.966309994
       197          197.000000         3.944140765       307.520904050     -1470.713179545     -1466.559780542        12.216793243
       198          198.000000         3.922753433       305.853354091     -1470.673218193     -1466.540432912        12.985432765
       199          199.000000         3.965030672       309.149670204     -1470.737214320     -1466.561375627        13.077818716
       200          200.000000         3.923277957       305.894250756     -1470.682996098     -1466.548128551        13.022778438
       201          201.000000         3.919234578       305.578992333     -1470.635050086     -1466.503448996        13.648613945
       202          202.000000         3.997696913       311.696625952     -1470.733835685     -1466.522987678        13.049313016
       203          203.000000         3.968781982       309.442156283     -1470.686711143     -1466.503977077        13.113104904
       204          204.000000         3.966363238       309.253569111     -1470.701199739     -1466.520077776        12.944209825
       205          205.000000         3.953461415       308.247626255     -1470.712512684     -1466.543480241        12.921529822
       206          206.000000         3.930052499       306.422455369     -1470.689149032     -1466.542712445        13.044005942
       207          207.000000         3.986138616       310.795436554     -1470.820115480     -1466.616774321        12.963318504
       208          208.000000         3.933847577       306.718353984     -1470.749408988     -1466.597531360        13.794904606
       209          209.000000         3.894253134       303.631212866     -1470.705973571     -1466.592871482        13.713850960
       210          210.000000         3.931734511       306.553600195     -1470.761196071     -1466.609799219        13.030903650
       211          211.000000         3.911329378       304.962631410     -1470.724095927     -1466.592289988        12.966183674
       212          212.000000         3.933299239       306.675600584     -1470.709313593     -1466.554725837        13.167432588
       213          213.000000         3.908029976       304.705380135     -1470.698614677     -1466.568484677        13.827033704
       214          214.000000         3.874185197       302.066534969     -1470.600065541     -1466.502979028        12.981715959
       215          215.000000         3.954148729       308.301215492     -1470.725226017     -1466.547377606        13.633795122
       216          216.000000         3.945314263       307.612400558     -1470.685733371     -1466.515910159        12.918033840
       217          217.000000         3.904570750       304.435667630     -1470.617954100     -1466.488066916        14.148723779
       218          218.000000         3.911446359       304.971752300     -1470.626639419     -1466.489075484        13.017883502
       219          219.000000         3.894120140       303.620843469     -1470.620363004     -1466.499328314        13.245683737
       220          220.000000         3.945277149       307.609506829     -1470.680275586     -1466.507287540        12.948350107
       221          221.000000         3.941896628       307.345930825     -1470.677847316     -1466.507435223        13.764785340
       222          222.000000         3.891061752       303.382383911     -1470.585245515     -1466.464866363        13.025043579
       223          223.000000         3.942378529       307.383504205     -1470.689882939     -1466.517388530        13.686933171
       224          224.000000         3.949031248       307.902210362     -1470.707820285     -1466.527865381        14.398296626
       225          225.000000         3.940948137       307.271977893     -1470.678396933     -1466.505711950        15.211225564
       226          226.000000         3.917597900       305.451382121     -1470.646336562     -1466.496187939        14.036130780
       227          227.000000         3.846271338       299.890117923     -1470.555312163     -1466.475687557        13.934832171