#     Step Nr.          Time[fs]        Kin.[a.u.]          Temp[K]            Pot.[a.u.]        Cons Qty[a.u.]        UsedTime[s]
         0            0.000000         3.844830508       300.000000000     -1262.965726312     -1259.120420781         0.000000000
         1            1.000000         4.291702631       334.868022506     -1263.618761789     -1259.325667263        49.918294409
         2            2.000000         3.966394255       309.485235792     -1263.231864458     -1259.263073695        13.297664097
         3            3.000000         3.812006080       297.438813369     -1262.978156642     -1259.162778320        13.283937337
         4            4.000000         4.389747860       342.518182609     -1263.804967963     -1259.410805467        13.333455129
         5            5.000000         3.837142092       299.400097094     -1263.028424186     -1259.185737466        13.307709893
         6            6.000000         3.924468016       306.213863597     -1263.173819111     -1259.242724926        13.315074364
         7            7.000000         4.086638701       318.867530748     -1263.419409112     -1259.325009385        13.930831680
         8            8.000000         3.735960440       291.505211864     -1262.874108525     -1259.129243285        13.953014849
         9            9.000000         4.281357950       334.060859705     -1263.661328873     -1259.369892790        13.311431428
        10           10.000000         3.901501267       304.421840597     -1263.168018174     -1259.255174540        13.323648974
        11           11.000000         3.607325069       281.468199508     -1262.794705871     -1259.174864952        13.326792825
        12           12.000000         4.107669045       320.508462141     -1263.519690666     -1259.398328566        13.308062309
        13           13.000000         3.658847757       285.488352373     -1262.839891133     -1259.166137010        12.667971300
        14           14.000000         3.830194131       298.857969669     -1263.129788589     -1259.283540097        13.312220840
        15           15.000000         3.873698086       302.252446067     -1263.213185803     -1259.322259389        13.309649294
        16           16.000000         3.447658187       269.009896241     -1262.535737341     -1259.069741313        12.687946828
        17           17.000000         4.108897757       320.604334665     -1263.444388650     -1259.316061177        12.688739622
        18           18.000000         3.877692396       302.564109476     -1263.108480341     -1259.210173659        12.670943959
        19           19.000000         3.590169960       280.129640499     -1262.743509290     -1259.131613244        12.650371175
        20           20.000000         3.996887514       311.864528626     -1263.350892742     -1259.331184440        12.705994684
        21           21.000000         3.623108325       282.699717198     -1262.754167347     -1259.107129151        12.058731662
        22           22.000000         3.992275674       311.504681328     -1263.245066047     -1259.227779301        12.041633094
        23           23.000000         4.057422949       316.587917781     -1263.372678911     -1259.289080569        12.689398853
        24           24.000000         3.496539068       272.823917225     -1262.600090787     -1259.076258777        12.660018854
        25           25.000000         4.056877167       316.545332121     -1263.402709230     -1259.317464820        12.036891757
        26           26.000000         3.921563465       305.987230667     -1263.166394306     -1259.215304601        12.039781185
        27           27.000000         3.766217543       293.866078224     -1263.010668881     -1259.213795299        12.703044156
        28           28.000000         4.054481439       316.358401014     -1263.482511193     -1259.396231057        12.660665540
        29           29.000000         3.542917594       276.442687340     -1262.740756563     -1259.164910599        12.690743869
        30           30.000000         3.972378937       309.952201683     -1263.299983964     -1259.293597820        12.697484519
        31           31.000000         4.157154323       324.369642387     -1263.539935301     -1259.347588095        12.671773564
        32           32.000000         3.594322425       280.453644259     -1262.754036603     -1259.123349393        12.676278045
        33           33.000000         3.973225143       310.018228488     -1263.422456392     -1259.411751107        13.956601089
        34           34.000000         3.757019276       293.148366450     -1263.095601004     -1259.299953838        13.933283081
        35           35.000000         3.745391969       292.241124374     -1263.052382844     -1259.267263823        13.927500095
        36           36.000000         4.112678382       320.899324918     -1263.690158532     -1259.536615112        14.539181011
        37           37.000000         3.483006828       271.768039257     -1262.852957609     -1259.327960210        15.225697722
        38           38.000000         3.801621850       296.628564679     -1263.284362438     -1259.439720127        15.214904465
        39           39.000000         4.081591331       318.473700371     -1263.652413491     -1259.526699366        15.255978420
        40           40.000000         3.699552609       288.664423669     -1263.026103685     -1259.281312333        15.187585359
        41           41.000000         4.057182136       316.569127859     -1263.570717582     -1259.467197927        15.197530746
        42           42.000000         3.695831860       288.374105305     -1263.071116649     -1259.327827644        14.573945722
        43           43.000000         3.701370153       288.806240885     -1262.978796377     -1259.228923821        13.342394212
        44           44.000000         4.217499877       329.078215608     -1263.706399289     -1259.439297486        14.572539221
        45           45.000000         3.660285138       285.600506719     -1262.916335284     -1259.205309657        13.990102010
        46           46.000000         3.839520011       299.585638673     -1263.220677837     -1259.329354774        13.928951804
        47           47.000000         3.987991132       311.170372009     -1263.415983045     -1259.375085187        13.381292773
        48           48.000000         3.727376034       290.835397754     -1262.984123945     -1259.202738598        13.321909154
        49           49.000000         4.192140276       327.099485939     -1263.659745604     -1259.412473371        12.684189186
        50           50.000000         3.729493479       291.000615352     -1263.048816177     -1259.263024759        13.358008003
        51           51.000000         3.590840715       280.181977352     -1262.873693963     -1259.225495524        13.374606652
        52           52.000000         4.111570880       320.812910014     -1263.595518537     -1259.425513492        12.691571292
        53           53.000000         3.702116905       288.864507575     -1262.964579404     -1259.202910021        12.766213089
        54           54.000000         3.883462513       303.014333474     -1263.267854465     -1259.323771553        12.720943840
        55           55.000000         3.832969006       299.074484376     -1263.247224176     -1259.352550691        12.699689528
        56           56.000000         3.514406040       274.218020745     -1262.741702198     -1259.164571879        12.713927396
        57           57.000000         4.129758214       322.232010352     -1263.585091105     -1259.391594940        12.691128677
        58           58.000000         3.801931424       296.652719773     -1263.131995636     -1259.265244489        12.690370439
        59           59.000000         3.601207366       280.990854447     -1262.900178136     -1259.233150446        13.373056935
        60           60.000000         3.980547960       310.589604775     -1263.445794772     -1259.398440231        13.369225066
        61           61.000000         3.643029478       284.254101999     -1262.887779309     -1259.176946466        12.699064516
        62           62.000000         3.984621254       310.907431035     -1263.374801331     -1259.321407198        12.759384478
        63           63.000000         3.925765703       306.315118045     -1263.303954256     -1259.308396225        12.773915159
        64           64.000000         3.468436814       270.631187018     -1262.669598613     -1259.130414403        12.693748213
        65           65.000000         4.024728247       314.036853277     -1263.476622441     -1259.380232898        12.752963740
        66           66.000000         3.838297526       299.490252026     -1263.194364100     -1259.283432598        12.725129638
        67           67.000000         3.743525962       292.095525746     -1263.070102134     -1259.253007648        12.733447818
        68           68.000000         4.006585574       312.621237662     -1263.481459749     -1259.400366319        13.352589287
        69           69.000000         3.571420804       278.666702982     -1262.835845781     -1259.188988233        13.364592517
        70           70.000000         4.001868673       312.253192749     -1263.417786663     -1259.339590363        13.370709667
        71           71.000000         4.057468115       316.591441921     -1263.494930247     -1259.360167748        13.351348983
        72           72.000000         3.565836008       278.230938943     -1262.807589738     -1259.163520806        13.327370733
        73           73.000000         3.984292734       310.881797676     -1263.427476047     -1259.364058314        13.355005300
        74           74.000000         3.799234517       296.442288603     -1263.136868462     -1259.257580788        13.366289716
        75           75.000000         3.840616363       299.671183540     -1263.175714967     -1259.254142498        13.341935679
        76           76.000000         4.107343619       320.483070210     -1263.611074428     -1259.421835036        13.346808869
        77           77.000000         3.549221499       276.934561202     -1262.833420031     -1259.201370643        13.378688490
        78           78.000000         3.903972790       304.614685743     -1263.344964684     -1259.357296992        13.340741875
        79           79.000000         4.037634128       315.043858412     -1263.508456683     -1259.386201784        13.377682280
        80           80.000000         3.649940570       284.793352715     -1262.938470515     -1259.202992309        12.740066649
        81           81.000000         3.981888177       310.694177687     -1263.456436047     -1259.388125894        12.762483502
        82           82.000000         3.675104118       286.756785001     -1263.024244747     -1259.261824686        13.400058934
        83           83.000000         3.772140123       294.328198449     -1263.134030813     -1259.273733273        13.340622999
        84           84.000000         4.161055578       324.674044975     -1263.581337524     -1259.331240203        12.703553569
        85           85.000000         3.601183696       280.989007598     -1262.783505167     -1259.092379812        13.358622709
        86           86.000000         3.828848698       298.752989762     -1263.171521856     -1259.251903145        13.387488972
        87           87.000000         3.939242167       307.366643998     -1263.295018382     -1259.264150993        13.354920596
        88           88.000000         3.707045385       289.249061353     -1262.953064214     -1259.153546353        13.375802180
        89           89.000000         4.088980940       319.050288284     -1263.557552179     -1259.375252231        13.382710468
        90           90.000000         3.654633474       285.159525209     -1262.961571603     -1259.212754715        13.339998875
        91           91.000000         3.648938249       284.715144764     -1262.962039416     -1259.218133129        12.764397927
        92           92.000000         4.078291577       318.216231003     -1263.570886095     -1259.396829593        12.700340241
        93           93.000000         3.630262431       283.257929597     -1262.944285332     -1259.217442939        12.730809776
        94           94.000000         3.809657517       297.255562418     -1263.283494657     -1259.376501732        13.342957361
        95           95.000000         3.770162077       294.173857735     -1263.241039470     -1259.372789046        13.356776258
        96           96.000000         3.558736112       277.676956410     -1262.883161921     -1259.225631867        13.365582474
        97           97.000000         4.088173404       318.987278806     -1263.617156522     -1259.429496204        13.352652892
        98           98.000000         3.710715523       289.535430602     -1263.076380024     -1259.265448780        13.348540952
        99           99.000000         3.609695606       281.653165034     -1262.969594993     -1259.259022455        13.373375567
       100          100.000000         3.957934848       308.825174994     -1263.466414574     -1259.406958856        13.359703092
       101          101.000000         3.610447464       281.711830178     -1262.957982713     -1259.245368832        13.976473479
       102          102.000000         3.902063251       304.465690402     -1263.396957047     -1259.392121007        13.960629893
       103          103.000000         3.807599053       297.094946969     -1263.280069143     -1259.369076819        13.359836912
       104          104.000000         3.509243628       273.815214025     -1262.833480582     -1259.220269962        13.350243870
       105          105.000000         4.057054183       316.559144063     -1263.611993564     -1259.450428518        13.318658289
       106          106.000000         3.786940501       295.483025316     -1263.200719637     -1259.308685337        13.425319286
       107          107.000000         3.701061694       288.782172753     -1263.106715627     -1259.300013698        13.360237012
       108          108.000000         3.931898023       306.793603584     -1263.449847292     -1259.411776183        13.531248005
       109          109.000000         3.578050035       279.183960926     -1262.928374473     -1259.243627281        13.332945675
       110          110.000000         3.971760930       309.903980514     -1263.501494628     -1259.422547309        14.026291743
       111          111.000000         3.901982725       304.459407255     -1263.421854866     -1259.412164358        14.614642397
       112          112.000000         3.505551462       273.527125935     -1262.892791034     -1259.279040720        14.606566830
       113          113.000000         3.955640064       308.646120204     -1263.532889445     -1259.468604866        13.992500715
       114          114.000000         3.757952039       293.221147001     -1263.169363007     -1259.302302150        13.348445147
       115          115.000000         3.776578046       294.674475573     -1263.209164469     -1259.323038551        13.965311376
       116          116.000000         3.936355946       307.141441302     -1263.466972444     -1259.420632002        14.014134619
       117          117.000000         3.479627745       271.504380015     -1262.842371554     -1259.252338826        15.236973848
       118          118.000000         3.908906187       304.999623156     -1263.427224558     -1259.407546625        13.959521711
       119          119.000000         3.976243844       310.253768146     -1263.492939863     -1259.405530817        13.997340119
       120          120.000000         3.636953682       283.780026753     -1263.021371621     -1259.272859155        13.338140603
       121          121.000000         3.949009319       308.128744037     -1263.527606339     -1259.466673515        13.975427717
       122          122.000000         3.666339778       286.072931152     -1263.106126587     -1259.327493236        13.357646190
       123          123.000000         3.787647743       295.538209164     -1263.250457904     -1259.350181441        13.358693153
       124          124.000000         4.017056147       313.438223498     -1263.576870305     -1259.446845236        13.387831399
       125          125.000000         3.487850022       272.145938390     -1262.861796453     -1259.260636961        13.977954503
       126          126.000000         3.800116703       296.511122739     -1263.330173412     -1259.416466835        13.967076335
       127          127.000000         3.877744371       302.568164924     -1263.421727109     -1259.430113460        14.630611517
       128          128.000000         3.664260018       285.910654028     -1263.105414663     -1259.327013062        15.329295751
       129          129.000000         3.988802493       311.233679920     -1263.568358789     -1259.465162642        14.616061561
       130          130.000000         3.608074609       281.526683746     -1263.029570340     -1259.306842109        13.993108803
       131          131.000000         3.724197022       290.587349460     -1263.174320333     -1259.335253696        14.010607408
       132          132.000000         4.063358365       317.051039518     -1263.632675111     -1259.454237494        13.339061234
       133          133.000000         3.620114103       282.466087511     -1263.112382586     -1259.376959571        15.262729239
       134          134.000000         3.848137355       300.258022828     -1263.478678590     -1259.515037827        15.876255788
       135          135.000000         3.829796632       298.826954015     -1263.457624652     -1259.512131055        15.920065166
       136          136.000000         3.694354340       288.258819094     -1263.228432952     -1259.418198735        15.255589975
       137          137.000000         4.086724466       318.874222691     -1263.808041815     -1259.605266368        14.663973663
       138          138.000000         3.649533824       284.761615562     -1263.222493329     -1259.456711758        15.245669058
       139          139.000000         3.662567864       285.778620614     -1263.257192627     -1259.478218399        15.870406203
       140          140.000000         4.016632266       313.405149398     -1263.712688624     -1259.579512111        15.253374621
       141          141.000000         3.708225265       289.341123625     -1263.226890062     -1259.401964760        14.613516020
       142          142.000000         3.943341179       307.686477000     -1263.579443760     -1259.519262690        15.322263779
       143          143.000000         3.780040383       294.944630849     -1263.336672002     -1259.439641521        14.630989572
       144          144.000000         3.578646794       279.230524160     -1263.051822004     -1259.356055805        15.248422792
       145          145.000000         4.058570252       316.677438193     -1263.755613018     -1259.579826025        14.668717997
       146          146.000000         3.725371593       290.678997583     -1263.284632548     -1259.441922881        14.587352274
       147          147.000000         3.678675161       287.035422233     -1263.278875158     -1259.482763050        14.611617271
       148          148.000000         3.907223098       304.868297007     -1263.610125847     -1259.585391061        15.264981650
       149          149.000000         3.666983655       286.123170865     -1263.179074893     -1259.394504381        15.263882376
       150          150.000000         4.045107142       315.626954157     -1263.706190431     -1259.543440460        14.618976841
       151          151.000000         3.881959351       302.897046543     -1263.530460350     -1259.530773787        15.316765960
       152          152.000000         3.581675144       279.466816769     -1263.077676285     -1259.378190677        15.231309803
       153          153.000000         4.003689614       312.395275078     -1263.567572778     -1259.446022892        13.363086170
       154          154.000000         3.764819782       293.757015326     -1263.198546430     -1259.315800146        13.341908008
       155          155.000000         3.801688122       296.633735675     -1263.322203507     -1259.402533591        13.983884076
       156          156.000000         3.924319272       306.202257560     -1263.545573216     -1259.503222426        14.039360538
       157          157.000000         3.593104224       280.358591880     -1263.064672496     -1259.353483993        13.979641447
       158          158.000000         4.036349292       314.943606742     -1263.641331916     -1259.486875991        14.662232064
       159          159.000000         3.990483564       311.364848653     -1263.590971627     -1259.482330806        15.276090708
       160          160.000000         3.680745556       287.196968611     -1263.173104171     -1259.374130713        14.648845732
       161          161.000000         3.966136313       309.465109446     -1263.608655356     -1259.524238904        14.056795379
       162          162.000000         3.720784740       290.321099892     -1263.197539846     -1259.358411680        14.057395579
       163          163.000000         3.872005414       302.120372164     -1263.408512909     -1259.418116567        14.658473030
       164          164.000000         4.008900877       312.801893504     -1263.639054000     -1259.511707770        13.989829745
       165          165.000000         3.574850303       278.934295975     -1263.061608827     -1259.368242720        14.654615313
       166          166.000000         3.915640338       305.525067687     -1263.563849552     -1259.529658159        14.643888908
       167          167.000000         3.931422525       306.756501985     -1263.533495338     -1259.483478586        14.675608352
       168          168.000000         3.741644124       291.948691809     -1263.215906170     -1259.355613658        15.271387130
       169          169.000000         3.972753584       309.981434213     -1263.597428371     -1259.505982294        15.319758600
       170          170.000000         3.625100529       282.855162604     -1263.079224185     -1259.335376860        14.682094989
       171          171.000000         3.805012600       296.893134171     -1263.314059370     -1259.390277007        14.011154681
       172          172.000000         4.037533325       315.035993073     -1263.650443918     -1259.494123165        13.416279558
       173          173.000000         3.628634803       283.130930854     -1263.045606897     -1259.298145159        13.394510513
       174          174.000000         3.859133912       301.116049496     -1263.397046746     -1259.419074141        13.385785943
       175          175.000000         3.798231569       296.364031678     -1263.298325144     -1259.381247137        13.372893222
       176          176.000000         3.712285683       289.657945271     -1263.147688920     -1259.316558887        13.379216269
       177          177.000000         4.028616198       314.340217826     -1263.591487611     -1259.444045727        13.396936825
       178          178.000000         3.642974063       284.249778132     -1263.073433729     -1259.311633315        13.426301409
       179          179.000000         3.749812840       292.586070949     -1263.228411590     -1259.359798818        13.387853937
       180          180.000000         3.986005753       311.015459127     -1263.562986585     -1259.458224124        13.399352016
       181          181.000000         3.666507852       286.086045428     -1263.125919078     -1259.340682873        14.115561176
       182          182.000000         3.877891136       302.579616546     -1263.439979434     -1259.443409868        13.382295167
       183          183.000000         3.723781541       290.554930789     -1263.193462468     -1259.351054969        13.376884563
       184          184.000000         3.638629559       283.910790159     -1263.026702278     -1259.269518854        13.428507619
       185          185.000000         4.017743842       313.491882153     -1263.556213096     -1259.420019676        13.439949322
       186          186.000000         3.678297311       287.005939809     -1263.068298032     -1259.271638982        13.393348919
       187          187.000000         3.728751001       290.942682068     -1263.193700650     -1259.346694868        14.008838894
       188          188.000000         3.900968416       304.380263905     -1263.403995472     -1259.384902041        14.000379141
       189          189.000000         3.658653850       285.473222456     -1263.026589412     -1259.249937727        14.030841026
       190          190.000000         3.936788032       307.175155582     -1263.461585883     -1259.406951456        13.985243369
       191          191.000000         3.729552682       291.005234731     -1263.208981180     -1259.361728149        14.022706624
       192          192.000000         3.576532715       279.065569227     -1262.980395642     -1259.286321748        14.021049313
       193          193.000000         3.968281825       309.632516957     -1263.581397262     -1259.495777714        15.235130779
       194          194.000000         3.730955707       291.114708328     -1263.202569612     -1259.354474045        15.250197615
       195          195.000000         3.804390259       296.844574859     -1263.350078947     -1259.428756613        15.278705809
       196          196.000000         3.889294470       303.469382688     -1263.478351789     -1259.472344529        15.299929598
       197          197.000000         3.648092950       284.649188764     -1263.069151171     -1259.304558810        14.066298444
       198          198.000000         4.013906203       313.192443269     -1263.555478759     -1259.425313630        14.608898945
       199          199.000000         3.864440584       301.530112370     -1263.431345232     -1259.450870956        15.279767621
       200          200.000000         3.657467926       285.380688532     -1263.143189050     -1259.369899273        15.317343995
       201          201.000000         3.946971139       307.969711299     -1263.552853960     -1259.490299493        15.289558508
       202          202.000000         3.733364424       291.302652982     -1263.250886533     -1259.402171142        15.273621891
       203          203.000000         3.880203497       302.760042780     -1263.387160507     -1259.391848961        14.012912298
       204          204.000000         3.930425654       306.678719300     -1263.472981828     -1259.427691916        15.291138329
       205          205.000000         3.600901275       280.966971179     -1263.004535065     -1259.288996426        13.985345792
       206          206.000000         3.923300129       306.122737050     -1263.465367508     -1259.427688224        14.654353725
       207          207.000000         3.831524097       298.961742728     -1263.373585693     -1259.427942400        14.646303969
       208          208.000000         3.687105761       287.693235334     -1263.099149701     -1259.298179991        14.043894455
       209          209.000000         3.904795239       304.678858851     -1263.457908293     -1259.439528576        15.398540135
       210          210.000000         3.637883430       283.852572086     -1263.052929077     -1259.301738147        14.024300430
       211          211.000000         3.816318080       297.775265172     -1263.293253236     -1259.363930343        14.020654503
       212          212.000000         3.900226690       304.322389372     -1263.410162098     -1259.397251207        13.359688370
       213          213.000000         3.580201400       279.351825217     -1262.968843913     -1259.276267319        13.377194904
       214          214.000000         3.859597717       301.152238719     -1263.368852188     -1259.397223088        13.371314030
       215          215.000000         3.796333982       296.215968981     -1263.252908671     -1259.344901755        13.430307468
       216          216.000000         3.730114928       291.049105018     -1263.156283920     -1259.314857299        13.994289991
       217          217.000000         3.925534607       306.297086349     -1263.461827321     -1259.425364139        14.013913602
       218          218.000000         3.596698348       280.639030002     -1263.007027737     -1259.299773415        14.026068553
       219          219.000000         3.772095641       294.324727712     -1263.243989511     -1259.361738042        13.977662707
       220          220.000000         3.930113405       306.654355463     -1263.442859216     -1259.403022302        14.047103444
       221          221.000000         3.663296839       285.835500218     -1263.064625447     -1259.292024176        14.008941106
       222          222.000000         3.877422580       302.543056605     -1263.396802443     -1259.410514883        14.007444581
       223          223.000000         3.753995586       292.912437483     -1263.212480111     -1259.350065357        13.412875105
       224          224.000000         3.746110749       292.297208483     -1263.152514619     -1259.298437068        13.357594928
       225          225.000000         4.018083918       313.518417235     -1263.566785656     -1259.441215310        13.984041832
       226          226.000000         3.701529463       288.818671326     -1263.121134274     -1259.312575407        13.980277520
       227          227.000000         3.804772556       296.874404305     -1263.237668653     -1259.326328196        13.403741164