#     Step Nr.          Time[fs]        Kin.[a.u.]          Temp[K]            Pot.[a.u.]        Cons Qty[a.u.]        UsedTime[s]
         0            0.000000         3.844830508       300.000000000     -1263.101905620     -1259.256600090         0.000000000
         1            1.000000         4.203933910       328.019705978     -1263.613686359     -1259.408372966        56.919407610
         2            2.000000         3.885857784       303.201228942     -1263.218245329     -1259.330042026        13.197225473
         3            3.000000         3.754262696       292.933279206     -1262.991082798     -1259.233549004        12.571218407
         4            4.000000         4.325660849       337.517675187     -1263.787425499     -1259.457514520        12.607137158
         5            5.000000         3.824084572       298.381260020     -1263.038935722     -1259.209541520        12.618677877
         6            6.000000         3.905746454       304.753079119     -1263.228347370     -1259.316275193        12.605840286
         7            7.000000         4.060130109       316.799148878     -1263.458813532     -1259.391296016        12.594283330
         8            8.000000         3.693892615       288.222792175     -1262.903781716     -1259.201438281        12.577940234
         9            9.000000         4.159022235       324.515389626     -1263.587222923     -1259.418682344        12.632460551
        10           10.000000         3.789464251       295.679945546     -1263.136270974     -1259.336165277        12.623752624
        11           11.000000         3.515107587       274.272760233     -1262.785624089     -1259.258850853        12.635390055
        12           12.000000         4.060041375       316.792225252     -1263.544754535     -1259.472031059        12.596257042
        13           13.000000         3.727664509       290.857906557     -1262.992742415     -1259.251329748        12.584506615
        14           14.000000         3.890626237       303.573296293     -1263.261954563     -1259.356548636        12.628915362
        15           15.000000         3.882860554       302.967364503     -1263.302304183     -1259.403606918        12.602264763
        16           16.000000         3.448422626       269.069542978     -1262.628520330     -1259.163267042        12.623905345
        17           17.000000         4.061778949       316.927802653     -1263.483327167     -1259.403752657        12.638899999
        18           18.000000         3.850425186       300.436535053     -1263.174017376     -1259.304757046        12.568928965
        19           19.000000         3.557342129       277.568188326     -1262.800645867     -1259.223496410        12.601932250
        20           20.000000         3.931213849       306.740219641     -1263.363112002     -1259.411148992        12.593126081
        21           21.000000         3.590143496       280.127575615     -1262.829593488     -1259.217755699        12.593951919
        22           22.000000         3.938913936       307.341033173     -1263.357854492     -1259.396334234        12.584964649
        23           23.000000         4.016166212       313.368784635     -1263.513939338     -1259.474191210        13.222265774
        24           24.000000         3.480575606       271.578338620     -1262.771203842     -1259.266108930        13.232910146
        25           25.000000         3.989715002       311.304880189     -1263.504028339     -1259.488906819        13.190736550
        26           26.000000         3.888373745       303.397541434     -1263.346754452     -1259.432024954        15.098886303
        27           27.000000         3.790552846       295.764885151     -1263.191484204     -1259.373642326        14.505625221
        28           28.000000         4.078519977       318.234052320     -1263.652217185     -1259.545453713        15.108878927
        29           29.000000         3.566872282       278.311796129     -1262.917036491     -1259.320967719        14.448620435
        30           30.000000         3.932552846       306.844697383     -1263.416478658     -1259.453828526        13.887588716
        31           31.000000         4.112762502       320.905888557     -1263.662534502     -1259.518695312        14.439629606
        32           32.000000         3.580360661       279.364251787     -1262.922668339     -1259.310259804        13.826812531
        33           33.000000         3.969479479       309.725966108     -1263.604006945     -1259.601556948        15.738201407
        34           34.000000         3.809623568       297.252913477     -1263.358094224     -1259.514538980        15.133934075
        35           35.000000         3.798735789       296.403374434     -1263.276957155     -1259.443353866        14.473533146
        36           36.000000         4.182095871       326.315752665     -1263.839811238     -1259.621866281        14.846674899
        37           37.000000         3.566005588       278.244170713     -1262.985783561     -1259.382934669        13.809399331
        38           38.000000         3.793263857       295.976416783     -1263.313300443     -1259.482283378        13.830853887
        39           39.000000         4.021210082       313.762341890     -1263.612535062     -1259.552616824        13.882622967
        40           40.000000         3.636440062       283.739950649     -1263.097682948     -1259.421580248        15.100712256
        41           41.000000         3.971454493       309.880070223     -1263.661083054     -1259.649042383        15.095315294
        42           42.000000         3.632378849       283.423066985     -1263.235625872     -1259.561730385        15.694284183
        43           43.000000         3.637489697       283.821850324     -1263.217615022     -1259.537752366        15.067366910
        44           44.000000         4.123762076       321.764150625     -1263.882458130     -1259.715439665        15.063407962
        45           45.000000         3.584995145       279.725865989     -1263.111509696     -1259.482351762        15.733387459
        46           46.000000         3.710370606       289.508517857     -1263.330490074     -1259.575133713        15.115873398
        47           47.000000         3.804737059       296.871634591     -1263.477763302     -1259.627220774        15.129343029
        48           48.000000         3.529962362       275.431831468     -1263.029704440     -1259.453153713        15.071091180
        49           49.000000         4.003116002       312.350517897     -1263.723491391     -1259.673027962        15.131151414
        50           50.000000         3.596741729       280.642414929     -1263.176773331     -1259.531909467        14.524528887
        51           51.000000         3.463334032       270.233032963     -1262.997375989     -1259.485240206        14.485421193
        52           52.000000         3.982155269       310.715018011     -1263.697047514     -1259.665433473        15.090711308
        53           53.000000         3.615429643       282.100573861     -1263.121213785     -1259.455649969        14.503251186
        54           54.000000         3.797934364       296.340841781     -1263.425716196     -1259.577020715        14.561968089
        55           55.000000         3.781056118       295.023885439     -1263.410775330     -1259.578331890        15.083970603
        56           56.000000         3.508348801       273.745393463     -1262.983078996     -1259.422759091        15.116737258
        57           57.000000         4.125858519       321.927729463     -1263.817072550     -1259.638677407        14.450809294
        58           58.000000         3.823547745       298.339373111     -1263.383273310     -1259.506566514        14.471453028
        59           59.000000         3.621746943       282.593492852     -1263.130688858     -1259.455201808        13.838592581
        60           60.000000         3.990955571       311.401677849     -1263.639190789     -1259.593931864        13.233296381
        61           61.000000         3.666341995       286.073104144     -1263.076305975     -1259.355082651        13.214413930
        62           62.000000         4.017086433       313.440586639     -1263.524498241     -1259.451969890        12.619462490
        63           63.000000         3.969846512       309.754604543     -1263.505035919     -1259.479139839        13.213895176
        64           64.000000         3.498820952       273.001965437     -1262.856711922     -1259.301259262        13.281887331
        65           65.000000         4.072547783       317.768060845     -1263.654888346     -1259.525162129        13.859306959
        66           66.000000         3.917855053       305.697874959     -1263.379162076     -1259.403523520        13.241129849
        67           67.000000         3.799891450       296.493546992     -1263.241229327     -1259.382954622        13.213813428
        68           68.000000         4.009134927       312.820155699     -1263.583362997     -1259.515239060        12.615125444
        69           69.000000         3.539832703       276.201983029     -1262.886502131     -1259.287079420        13.266919095
        70           70.000000         3.961530371       309.105722262     -1263.445846087     -1259.424167045        13.221640631
        71           71.000000         4.023265146       313.922692123     -1263.529841790     -1259.445818348        13.293025995
        72           72.000000         3.545557627       276.648680788     -1262.897832269     -1259.290916735        12.649744563
        73           73.000000         3.938838660       307.335159610     -1263.453563921     -1259.452812150        13.224156865
        74           74.000000         3.718448386       290.138801540     -1263.109057200     -1259.328124109        13.238128789
        75           75.000000         3.776827394       294.693931464     -1263.171090975     -1259.331237419        13.230881221
        76           76.000000         4.052778255       316.225506885     -1263.601882655     -1259.485520885        12.607486997
        77           77.000000         3.483680829       271.820629375     -1262.838952683     -1259.291131710        13.268028225
        78           78.000000         3.836246878       299.330246382     -1263.415687397     -1259.514807305        13.893266980
        79           79.000000         3.982379321       310.732500135     -1263.582557109     -1259.535024398        13.856538934
        80           80.000000         3.620615356       282.505198739     -1263.051453139     -1259.365163857        13.909490626
        81           81.000000         3.948582701       308.095456437     -1263.568645088     -1259.553897578        13.883741170
        82           82.000000         3.627188915       283.018112834     -1263.109838742     -1259.415988930        13.905091255
        83           83.000000         3.741212127       291.914984472     -1263.274595549     -1259.466271415        14.518853361
        84           84.000000         4.113106041       320.932693857     -1263.794391494     -1259.613706694        13.871754331
        85           85.000000         3.539423560       276.170058908     -1263.004963729     -1259.397476728        15.122936809
        86           86.000000         3.793742249       296.013744270     -1263.446593331     -1259.584361847        15.199524944
        87           87.000000         3.892511031       303.720360795     -1263.552629326     -1259.591196323        15.763658769
        88           88.000000         3.670911131       286.429619450     -1263.216330902     -1259.476070123        15.181195487
        89           89.000000         4.046191564       315.711568200     -1263.796783553     -1259.680825666        15.167921175
        90           90.000000         3.570450164       278.590967019     -1263.145277045     -1259.504630093        15.155820916
        91           91.000000         3.577969483       279.177675763     -1263.144668060     -1259.496137352        15.126800875
        92           92.000000         4.031616285       314.574305163     -1263.773626207     -1259.671102281        15.158344632
        93           93.000000         3.625873755       282.915495012     -1263.182390460     -1259.485244143        15.143036498
        94           94.000000         3.830568781       298.887202358     -1263.528225800     -1259.626056583        15.170424163
        95           95.000000         3.725029245       290.652285189     -1263.409200930     -1259.612248838        15.135066319
        96           96.000000         3.507248869       273.659569219     -1263.047616633     -1259.468160805        15.115600388
        97           97.000000         4.065409430       317.211077674     -1263.836715814     -1259.698849484        14.561565421
        98           98.000000         3.666857484       286.113326144     -1263.285549018     -1259.545958561        17.883150318
        99           99.000000         3.569434528       278.511720076     -1263.188203693     -1259.545803635        15.160703932
       100          100.000000         3.899170480       304.239976599     -1263.674517114     -1259.702184208        15.149518356
       101          101.000000         3.597508766       280.702264334     -1263.195528813     -1259.524663996        15.181938639
       102          102.000000         3.956564878       308.718280525     -1263.703493278     -1259.673409598        14.479349817
       103          103.000000         3.832513053       299.038907813     -1263.541993560     -1259.635783014        15.133934269
       104          104.000000         3.518977262       274.574698743     -1263.050997493     -1259.458160219        14.499452340
       105          105.000000         4.032306669       314.628173623     -1263.756230742     -1259.649941068        15.190352779
       106          106.000000         3.786109277       295.418167526     -1263.383945350     -1259.523706448        15.110668315
       107          107.000000         3.764159901       293.705526896     -1263.383222345     -1259.544796782        15.127955935
       108          108.000000         3.958040916       308.833451145     -1263.703192668     -1259.670757368        14.502813639
       109          109.000000         3.585942245       279.799765250     -1263.139616725     -1259.479145494        14.530510902
       110          110.000000         3.998474501       311.988356238     -1263.685355655     -1259.612248526        14.489322031
       111          111.000000         3.892232904       303.698659452     -1263.542862062     -1259.575870052        15.184010434
       112          112.000000         3.518511377       274.538347201     -1263.049861005     -1259.456468248        15.157666173
       113          113.000000         3.963409044       309.252309225     -1263.708464500     -1259.670094510        15.206529395
       114          114.000000         3.741514993       291.938616117     -1263.380402398     -1259.563836880        14.498497950
       115          115.000000         3.801985982       296.656976727     -1263.469533149     -1259.592422000        15.103152639
       116          116.000000         3.975160491       310.169237524     -1263.738225832     -1259.687868686        15.768691136
       117          117.000000         3.520858028       274.721448996     -1263.093276251     -1259.497142016        15.182371177
       118          118.000000         3.935441981       307.070127476     -1263.657949850     -1259.647194653        15.131973461
       119          119.000000         3.917754168       305.690003222     -1263.583057971     -1259.589943652        15.152506895
       120          120.000000         3.577660802       279.153590300     -1263.082277630     -1259.429205076        15.150711597
       121          121.000000         3.879750188       302.724672494     -1263.584578380     -1259.629401641        14.496211888
       122          122.000000         3.597532724       280.704133752     -1263.164770965     -1259.491803791        14.634967597
       123          123.000000         3.807433544       297.082032820     -1263.418792731     -1259.535953131        14.508218251
       124          124.000000         4.028880697       314.360855804     -1263.763692779     -1259.659443275        15.196055338
       125          125.000000         3.481580960       271.656783257     -1263.026063293     -1259.469131950        15.161910444
       126          126.000000         3.820799844       298.124963062     -1263.461254521     -1259.565171112        15.178889065
       127          127.000000         3.851263041       300.501910233     -1263.455220697     -1259.528756770        15.749008458
       128          128.000000         3.665292540       285.991218509     -1263.167487630     -1259.427079588        14.531016932
       129          129.000000         3.963122762       309.229971561     -1263.627953458     -1259.589826226        14.520514587
       130          130.000000         3.539687252       276.190633966     -1263.056462559     -1259.441874850        15.751389432
       131          131.000000         3.694362210       288.259433207     -1263.333549132     -1259.564431799        15.794193536
       132          132.000000         4.006215212       312.592339482     -1263.736284701     -1259.655496113        15.832320686
       133          133.000000         3.585085566       279.732921215     -1263.104382431     -1259.444889846        14.473065533
       134          134.000000         3.808720379       297.182440478     -1263.460889926     -1259.577960568        13.268017963
       135          135.000000         3.684406286       287.482603834     -1263.316929860     -1259.558531930        13.880426956
       136          136.000000         3.610438723       281.711148159     -1263.166661123     -1259.482473153        13.912535999
       137          137.000000         4.038606291       315.119713236     -1263.751238981     -1259.639173928        13.894148385
       138          138.000000         3.582927542       279.564537459     -1263.133689246     -1259.477577735        13.880327797
       139          139.000000         3.621665829       282.587163784     -1263.188704498     -1259.494154236        13.920543187
       140          140.000000         3.897325083       304.095986147     -1263.560643172     -1259.590786828        13.945052165
       141          141.000000         3.606322050       281.389937152     -1263.119572096     -1259.441077256        13.941979965
       142          142.000000         3.888615916       303.416437308     -1263.549678507     -1259.589283847        13.897367602
       143          143.000000         3.681062233       287.221677934     -1263.263789668     -1259.511353124        13.910414415
       144          144.000000         3.554882687       277.376285857     -1263.111216296     -1259.485378107        15.196338456
       145          145.000000         4.034281629       314.782273500     -1263.775736088     -1259.670984977        15.107799041
       146          146.000000         3.723093841       290.501271752     -1263.304682094     -1259.511601426        15.223899205
       147          147.000000         3.758965276       293.300206696     -1263.372939599     -1259.544472555        14.549966029
       148          148.000000         3.877845175       302.576030302     -1263.576925261     -1259.630093085        14.537461505
       149          149.000000         3.604064819       281.213812503     -1263.142317019     -1259.469777161        14.571819928
       150          150.000000         4.016929581       313.428347964     -1263.714700339     -1259.629853502        14.543495332
       151          151.000000         3.839284993       299.567300906     -1263.468408199     -1259.561766340        14.518478175
       152          152.000000         3.616873243       282.213213436     -1263.106839064     -1259.423148009        13.920869156
       153          153.000000         4.028205505       314.308172717     -1263.680154125     -1259.585719271        14.531247943
       154          154.000000         3.795438907       296.146129116     -1263.306763111     -1259.445682219        13.938527988
       155          155.000000         3.921874440       306.011495041     -1263.496861586     -1259.509931542        13.922103557
       156          156.000000         3.970172545       309.780043831     -1263.598484086     -1259.563848166        13.936468341
       157          157.000000         3.596365003       280.613020134     -1263.063008892     -1259.402739967        13.869961068
       158          158.000000         4.035205098       314.854328916     -1263.672396829     -1259.573888124        13.902499731
       159          159.000000         3.936897327       307.183683560     -1263.547142659     -1259.547550194        15.180847762
       160          160.000000         3.707482196       289.283144309     -1263.239397412     -1259.469794988        14.589907221
       161          161.000000         3.978577794       310.435878910     -1263.651033363     -1259.610935408        14.564656257
       162          162.000000         3.702677320       288.908235010     -1263.235894456     -1259.472290599        13.911421904
       163          163.000000         3.915800527       305.537566771     -1263.524264888     -1259.548150117        14.492891820
       164          164.000000         3.992012501       311.484146787     -1263.632817024     -1259.581122475        13.931283237
       165          165.000000         3.576491913       279.062385633     -1263.058248652     -1259.422670169        14.558536058
       166          166.000000         3.934500488       306.996665723     -1263.592700765     -1259.599746574        14.507625348
       167          167.000000         3.857940499       301.022931249     -1263.442191399     -1259.526454870        15.189200285
       168          168.000000         3.736450130       291.543420873     -1263.264469740     -1259.470871464        15.219017434
       169          169.000000         3.991312415       311.429521283     -1263.663957627     -1259.616177769        13.897862609
       170          170.000000         3.633019564       283.473059925     -1263.140129114     -1259.451308723        14.564504085
       171          171.000000         3.861969284       301.337284638     -1263.446628483     -1259.529550349        14.555603842
       172          172.000000         4.022995374       313.901642634     -1263.667680478     -1259.590312498        14.506964221
       173          173.000000         3.651983187       284.952731662     -1263.151295269     -1259.445643814        14.515451505
       174          174.000000         3.920683500       305.918569704     -1263.585814682     -1259.612190681        15.142523043
       175          175.000000         3.816610964       297.798117917     -1263.433199323     -1259.564396271        15.138736601
       176          176.000000         3.811880529       297.429017021     -1263.347564986     -1259.484244444        14.516983127
       177          177.000000         4.070305231       317.593081549     -1263.731208692     -1259.610252283        14.505961121
       178          178.000000         3.638568361       283.906015115     -1263.132958144     -1259.444493713        13.862729632
       179          179.000000         3.818026711       297.908584239     -1263.385941694     -1259.518786345        13.261054950
       180          180.000000         4.000442171       312.141887293     -1263.623312840     -1259.574564613        13.891103576
       181          181.000000         3.734007847       291.352857229     -1263.229321497     -1259.447814038        13.249890939
       182          182.000000         3.976592690       310.280987521     -1263.609544836     -1259.586279143        13.297761969
       183          183.000000         3.744144805       292.143812103     -1263.281715731     -1259.491724293        13.232369595
       184          184.000000         3.707300634       289.268977589     -1263.226467918     -1259.474146238        13.885738118
       185          185.000000         4.063023130       317.024882244     -1263.737192338     -1259.630041617        13.901615036
       186          186.000000         3.702274653       288.876816178     -1263.172279153     -1259.426758463        13.265293007
       187          187.000000         3.777112237       294.716156842     -1263.342432917     -1259.522955588        13.882772116
       188          188.000000         3.847422797       300.202268086     -1263.441537191     -1259.552676395        13.245747453
       189          189.000000         3.673156282       286.604801512     -1263.061411220     -1259.347752492        13.281548333
       190          190.000000         4.009939914       312.882966224     -1263.545403917     -1259.495956157        13.255795270
       191          191.000000         3.738122697       291.673925954     -1263.211198897     -1259.434570622        13.280728616
       192          192.000000         3.613639331       281.960881512     -1263.047357421     -1259.396197226        13.858217695
       193          193.000000         3.941046278       307.507413131     -1263.545097976     -1259.567596007        15.136855296
       194          194.000000         3.700297545       288.722548654     -1263.108475506     -1259.372813404        13.877523840
       195          195.000000         3.854718869       300.771557622     -1263.334086863     -1259.445120895        13.885906687
       196          196.000000         3.868870268       301.875746634     -1263.333056719     -1259.431103831        13.225850854
       197          197.000000         3.632910970       283.464586745     -1262.982653828     -1259.317812898        12.628134500
       198          198.000000         3.996465490       311.831599469     -1263.514010414     -1259.486836678        13.201942974
       199          199.000000         3.833030477       299.079280773     -1263.328797190     -1259.466317136        13.820506577
       200          200.000000         3.712864163       289.703082230     -1263.167057419     -1259.425980049        13.907284313
       201          201.000000         3.932031712       306.804034901     -1263.540784890     -1259.581833808        15.026589360
       202          202.000000         3.686339723       287.633463837     -1263.143448155     -1259.431495728        14.446358956
       203          203.000000         3.913585945       305.364769889     -1263.450123818     -1259.512272806        13.824496230
       204          204.000000         3.925643247       306.305563188     -1263.481532362     -1259.533030650        13.212754748
       205          205.000000         3.654770666       285.170229856     -1263.083125769     -1259.406872151        13.540316277
       206          206.000000         3.993017484       311.562562388     -1263.536746472     -1259.523682468        13.167228321
       207          207.000000         3.848924185       300.319416710     -1263.308951705     -1259.441462051        13.199887446
       208          208.000000         3.789453245       295.679086767     -1263.247308165     -1259.440754996        13.802999371
       209          209.000000         4.012052551       313.047808694     -1263.503276965     -1259.475652392        13.252176160
       210          210.000000         3.756993865       293.146383702     -1263.156441740     -1259.385402226        14.460079995
       211          211.000000         4.009802646       312.872255675     -1263.458421353     -1259.436131145        13.773608993
       212          212.000000         4.050938386       316.081947730     -1263.402769746     -1259.340959700        12.606974331
       213          213.000000         3.751966706       292.754130325     -1262.986617635     -1259.225336947        13.221559102
       214          214.000000         3.984862832       310.926280664     -1263.332108013     -1259.339507870        12.550970917
       215          215.000000         3.829689787       298.818617268     -1263.092212357     -1259.256385891        11.943286111
       216          216.000000         3.851172382       300.494836429     -1263.109226644     -1259.253516000        11.922017976
       217          217.000000         4.022468605       313.860540512     -1263.353398025     -1259.328051859        11.955731073
       218          218.000000         3.679693672       287.114893409     -1262.879015381     -1259.198072176        12.576661585
       219          219.000000         3.920564000       305.909245504     -1263.194459051     -1259.274297006        12.547941053
       220          220.000000         3.986311725       311.039333204     -1263.249690500     -1259.265514965        12.577984403
       221          221.000000         3.738283054       291.686438143     -1262.902639520     -1259.168192721        12.564999058
       222          222.000000         3.909329957       305.032688616     -1263.186223869     -1259.282450611        12.550145622
       223          223.000000         3.676763817       286.886286073     -1262.891174599     -1259.221696891        12.553164916
       224          224.000000         3.713491865       289.752059832     -1262.930706553     -1259.226237125        12.614682651
       225          225.000000         3.948426052       308.083233619     -1263.255110245     -1259.317554758        11.974281191
       226          226.000000         3.655273294       285.209448331     -1262.887287172     -1259.244736772        12.552836966
       227          227.000000         3.825234968       298.471021822     -1263.135432056     -1259.324794129        12.564156588