#     Step Nr.          Time[fs]        Kin.[a.u.]          Temp[K]            Pot.[a.u.]        Cons Qty[a.u.]        UsedTime[s]
         0            0.000000         3.844830508       300.000000000     -1262.919303475     -1259.073997944         0.000000000
         1            1.000000         3.749614630       292.570605263     -1262.805589694     -1259.054658223        51.824818060
         2            2.000000         3.730454524       291.075602644     -1262.812311880     -1259.079728011        13.554941125
         3            3.000000         3.747679310       292.419598358     -1262.824383269     -1259.073783650        12.958928384
         4            4.000000         3.724249112       290.591413894     -1262.847392128     -1259.119452177        13.625315245
         5            5.000000         3.820754455       298.121421482     -1262.913340861     -1259.088138210        13.588673662
         6            6.000000         3.797672443       296.320404903     -1262.927512467     -1259.124634699        14.287858587
         7            7.000000         3.807187141       297.062806764     -1262.926511942     -1259.113372126        13.608283825
         8            8.000000         3.910809835       305.148158776     -1263.042450461     -1259.124934547        13.568875734
         9            9.000000         3.835340435       299.259519484     -1262.926672795     -1259.083861238        12.926277865
        10           10.000000         3.795958337       296.186658558     -1262.914425274     -1259.110242932        12.914242979
        11           11.000000         3.754750188       292.971316679     -1262.827027206     -1259.063317550        12.875097081
        12           12.000000         3.721602171       290.384881469     -1262.768982357     -1259.037709639        13.573655583
        13           13.000000         3.867152034       301.741678253     -1262.932538938     -1259.055014377        12.915608991
        14           14.000000         3.865421696       301.606665444     -1262.846447462     -1258.969936907        12.879244901
        15           15.000000         3.823483225       298.334338826     -1262.821118137     -1258.985830415        12.913979061
        16           16.000000         3.866215457       301.668600132     -1262.889191601     -1259.010457830        12.935683865
        17           17.000000         3.805555659       296.935507393     -1262.793332274     -1258.974544176        12.933977786
        18           18.000000         3.825217741       298.469677619     -1262.838220451     -1258.999065472        12.942198098
        19           19.000000         3.796232847       296.208077746     -1262.812678632     -1259.001809372        12.916742522
        20           20.000000         3.739468273       291.778917059     -1262.726224421     -1258.971438275        12.911421314
        21           21.000000         3.883264242       302.998863064     -1262.905458234     -1259.006202408        12.924082663
        22           22.000000         3.924121237       306.186805487     -1262.933123748     -1258.992315271        12.864149876
        23           23.000000         3.920982000       305.941860769     -1262.925444982     -1258.987061262        12.282522604
        24           24.000000         3.944899711       307.808084298     -1262.968886611     -1259.005852065        12.911485091
        25           25.000000         3.869904267       301.956426300     -1262.815932838     -1258.927147109        12.291047208
        26           26.000000         3.926155655       306.345544761     -1262.903307262     -1258.957516328        12.906630635
        27           27.000000         3.936798318       307.175958210     -1262.922074603     -1258.964864719        12.943330627
        28           28.000000         3.879386002       302.696256215     -1262.855615864     -1258.955029114        12.907734353
        29           29.000000         3.985618494       310.985242558     -1262.982692253     -1258.975066949        12.886729717
        30           30.000000         4.006863013       312.642885394     -1262.988637555     -1258.958920943        12.913777221
        31           31.000000         4.013930972       313.194375959     -1262.986469858     -1258.948801397        12.915350124
        32           32.000000         3.991700701       311.459817996     -1263.013302984     -1258.996947445        12.855874695
        33           33.000000         3.870208295       301.980148693     -1262.851071850     -1258.955279669        12.889474876
        34           34.000000         3.931021697       306.725226668     -1262.953146749     -1258.995608700        12.848067202
        35           35.000000         3.971905176       309.915235609     -1262.975423155     -1258.976039064        12.887827750
        36           36.000000         3.920800432       305.927693563     -1262.890223502     -1258.940958450        12.902928449
        37           37.000000         3.956633217       308.723612790     -1262.958147390     -1258.972047185        12.890409380
        38           38.000000         3.914052339       305.401161128     -1262.908934976     -1258.964392606        12.877406493
        39           39.000000         3.939792606       307.409593044     -1262.908690814     -1258.937370716        12.838592973
        40           40.000000         3.976232470       310.252880694     -1262.988462689     -1258.979636555        12.915126495
        41           41.000000         3.863884215       301.486700644     -1262.808023502     -1258.910466141        12.885484155
        42           42.000000         3.890396676       303.555384367     -1262.808238278     -1258.883092822        12.847072646
        43           43.000000         3.923761445       306.158732072     -1262.867156295     -1258.907552170        12.892833963
        44           44.000000         3.921944721       306.016978840     -1262.841901126     -1258.882999755        12.922335818
        45           45.000000         4.002259475       312.283685843     -1262.964698015     -1258.924338297        12.835139070
        46           46.000000         3.931422591       306.756507158     -1262.901829090     -1258.931132498        12.849869486
        47           47.000000         3.904285162       304.639059160     -1262.930657051     -1258.985919573        12.898315664
        48           48.000000         3.930769714       306.705565201     -1262.983618266     -1259.011204358        12.867375061
        49           49.000000         3.852506099       300.598902123     -1262.901587653     -1259.006238600        13.520253591
        50           50.000000         3.879363358       302.694489376     -1262.998905983     -1259.075504671        13.520147040
        51           51.000000         3.872562025       302.163802782     -1262.987040595     -1259.069236581        13.542998843
        52           52.000000         3.852454922       300.594908947     -1262.877789086     -1258.978887369        12.840356853
        53           53.000000         3.921784494       306.004476813     -1262.931551215     -1258.962104031        12.849585634
        54           54.000000         3.839191794       299.560028900     -1262.812586169     -1258.924506733        12.845196605
        55           55.000000         3.806801535       297.032719133     -1262.799056262     -1258.942160788        12.871802684
        56           56.000000         3.842542982       299.821511508     -1262.853137617     -1258.959300529        12.872802932
        57           57.000000         3.792323379       295.903034300     -1262.814127780     -1258.969315869        12.856902484
        58           58.000000         3.824368361       298.403403183     -1262.855510153     -1258.977471071        12.888283174
        59           59.000000         3.786940791       295.483047935     -1262.851494375     -1259.009708382        12.907264363
        60           60.000000         3.758030418       293.227262697     -1262.815869152     -1259.001841653        12.869389210
        61           61.000000         3.849124081       300.335013940     -1262.933553850     -1259.027286884        12.938067555
        62           62.000000         3.796767895       296.249825859     -1262.899054316     -1259.043995993        12.849963766
        63           63.000000         3.761182642       293.473220765     -1262.909826749     -1259.089229862        13.558001835
        64           64.000000         3.765312382       293.795451345     -1262.962535758     -1259.136706985        13.521010365
        65           65.000000         3.735599434       291.477043769     -1262.914533439     -1259.117337162        14.204821251
        66           66.000000         3.834199076       299.170462902     -1263.034777158     -1259.137910974        13.591905080
        67           67.000000         3.818721391       297.962787881     -1263.015608559     -1259.133144728        13.474061102
        68           68.000000         3.742125022       291.986214771     -1262.904167763     -1259.097246329        13.528267268
        69           69.000000         3.800882279       296.570858264     -1262.962371018     -1259.095659601        13.566415131
        70           70.000000         3.799137221       296.434696897     -1262.963132364     -1259.097137539        13.491403814
        71           71.000000         3.833264973       299.097577758     -1262.988384675     -1259.087239404        13.528212134
        72           72.000000         3.862027644       301.341838257     -1263.057994425     -1259.127059831        13.517345879
        73           73.000000         3.809954206       297.278712077     -1262.984475629     -1259.104591587        13.498936251
        74           74.000000         3.907260917       304.871247917     -1263.143857532     -1259.165643260        13.489952099
        75           75.000000         3.943287399       307.682280677     -1263.174297823     -1259.159006912        13.546170659
        76           76.000000         3.905553823       304.738048785     -1263.120929279     -1259.142306167        12.895537224
        77           77.000000         3.931694920       306.777756114     -1263.162599399     -1259.156759389        12.831683319
        78           78.000000         3.886702236       303.267118851     -1263.096015896     -1259.134082060        12.890010886
        79           79.000000         3.931007549       306.724122718     -1263.059084136     -1259.051750396        12.826709144
        80           80.000000         3.959376278       308.937645216     -1263.106088132     -1259.069266392        12.871846467
        81           81.000000         3.873759944       302.257272671     -1263.001153438     -1259.048819389        12.965044480
        82           82.000000         3.914599982       305.443891999     -1263.077296289     -1259.082993911        13.530209169
        83           83.000000         3.925433469       306.289194868     -1263.091374740     -1259.085092788        12.844478711
        84           84.000000         3.903160322       304.551291443     -1263.046729595     -1259.061564105        12.877683669
        85           85.000000         3.916560143       305.596837226     -1263.058097206     -1259.058367170        12.883266594
        86           86.000000         3.820971678       298.138370716     -1262.937584794     -1259.032282598        12.934912201
        87           87.000000         3.822063299       298.223546429     -1262.945913925     -1259.038379621        12.913198650
        88           88.000000         3.854565110       300.759560308     -1262.960398683     -1259.019224575        12.925970498
        89           89.000000         3.799155693       296.436138208     -1262.944258273     -1259.057363049        13.609647501
        90           90.000000         3.824688406       298.428375295     -1262.952426265     -1259.038883193        12.884760533
        91           91.000000         3.811431472       297.393978524     -1262.930316225     -1259.028922105        13.550605249
        92           92.000000         3.818873154       297.974629522     -1262.951839285     -1259.041906540        12.927421376
        93           93.000000         3.873013733       302.199048181     -1263.032903705     -1259.067732797        12.917713761
        94           94.000000         3.813637451       297.566104117     -1262.963844769     -1259.056954766        12.928423148
        95           95.000000         3.823916848       298.368173060     -1262.962886097     -1259.044637129        12.980198167
        96           96.000000         3.845236205       300.031655224     -1263.000015893     -1259.059371855        12.911161639
        97           97.000000         3.809882891       297.273147657     -1262.949896407     -1259.043537748        12.865660008
        98           98.000000         3.868902515       301.878262764     -1263.004031424     -1259.037591124        12.952700235
        99           99.000000         3.858438572       301.061794336     -1262.971178437     -1259.014134928        12.924214050
       100          100.000000         3.860565993       301.227790266     -1262.969100125     -1259.008864924        12.909606051
       101          101.000000         3.920073635       305.870983903     -1263.035796839     -1259.014981496        12.949392442
       102          102.000000         3.855997032       300.871288640     -1262.958346668     -1259.000529015        12.949191183
       103          103.000000         3.864657351       301.547026008     -1262.932240954     -1258.964692807        12.956819933
       104          104.000000         3.883686975       303.031847603     -1262.956488907     -1258.968838108        12.908891983
       105          105.000000         3.855327566       300.819052280     -1262.910225922     -1258.949861521        12.248782530
       106          106.000000         3.901473794       304.419696945     -1262.981034058     -1258.973449428        12.258394342
       107          107.000000         3.849818696       300.389212528     -1262.896015870     -1258.939009745        12.244883537
       108          108.000000         3.839742739       299.603017397     -1262.919084397     -1258.971089837        12.925085679
       109          109.000000         3.901238828       304.401363328     -1262.997032057     -1258.986474918        12.909232911
       110          110.000000         3.845687325       300.066854713     -1262.919757791     -1258.963682340        12.881264124
       111          111.000000         3.838786710       299.528421447     -1262.939117207     -1258.988885775        12.225268215
       112          112.000000         3.827669113       298.660950448     -1262.931997717     -1258.991837120        12.265854839
       113          113.000000         3.804243753       296.833143490     -1262.894089154     -1258.976321668        12.244762708
       114          114.000000         3.878638465       302.637928281     -1262.971224285     -1258.978034812        12.229546584
       115          115.000000         3.862220988       301.356924281     -1262.905931505     -1258.928126238        12.242511753
       116          116.000000         3.842564764       299.823211144     -1262.860755964     -1258.901581427        12.241397388
       117          117.000000         3.868177384       301.821683058     -1262.881451169     -1258.895643510        12.893994238
       118          118.000000         3.817401500       297.859800969     -1262.728812191     -1258.792766991        12.269390017
       119          119.000000         3.834011421       299.155820772     -1262.755998972     -1258.802345288        12.214761410
       120          120.000000         3.823284891       298.318863390     -1262.774988240     -1258.831071187        12.215049762
       121          121.000000         3.783465380       295.211872524     -1262.718642212     -1258.813572873        12.237336695
       122          122.000000         3.844557952       299.978733273     -1262.827299890     -1258.860179807        12.186581887
       123          123.000000         3.838572329       299.511693967     -1262.796847780     -1258.834756614        12.274114430
       124          124.000000         3.834842184       299.220642549     -1262.810845071     -1258.851536472        12.206203844
       125          125.000000         3.856797289       300.933730139     -1262.862307556     -1258.880102163        12.932240296
       126          126.000000         3.812218619       297.455397138     -1262.781204188     -1258.842644607        12.867327586
       127          127.000000         3.833548137       299.119672143     -1262.816737360     -1258.855929914        12.875527084
       128          128.000000         3.825247768       298.472020493     -1262.811437737     -1258.858020562        12.225417260
       129          129.000000         3.798401653       296.377302835     -1262.762187555     -1258.834721728        12.179170210
       130          130.000000         3.851531564       300.522862227     -1262.846129815     -1258.864650338        12.261723764
       131          131.000000         3.828890257       298.756232438     -1262.811783939     -1258.852065900        12.228572443
       132          132.000000         3.828552603       298.729886385     -1262.807868357     -1258.847620224        12.259671647
       133          133.000000         3.831357419       298.948737359     -1262.831887705     -1258.867976765        12.188594811
       134          134.000000         3.769832845       294.148168844     -1262.761665146     -1258.858438407        12.257895555
       135          135.000000         3.806707749       297.025401299     -1262.809846088     -1258.868925952        12.189421766
       136          136.000000         3.801154582       296.592105221     -1262.805899152     -1258.869725580        12.229188442
       137          137.000000         3.766084035       293.855661035     -1262.791982312     -1258.890092911        12.242936205
       138          138.000000         3.805934195       296.965043371     -1262.879875109     -1258.937368918        12.240289886
       139          139.000000         3.776967396       294.704855380     -1262.819414095     -1258.905122752        12.250578944
       140          140.000000         3.775640101       294.601290696     -1262.811264665     -1258.897570679        12.241260923
       141          141.000000         3.796708244       296.245171454     -1262.859660985     -1258.924186344        12.225346182
       142          142.000000         3.756528971       293.110109534     -1262.808164668     -1258.912175634        12.239294235
       143          143.000000         3.790717714       295.777749298     -1262.831277516     -1258.900428183        12.873447292
       144          144.000000         3.817271958       297.849693192     -1262.881338276     -1258.923274547        12.890593845
       145          145.000000         3.827899159       298.678900186     -1262.892666899     -1258.923324327        12.254306220
       146          146.000000         3.880850767       302.810547218     -1263.015063717     -1258.992120683        12.895339228
       147          147.000000         3.846887376       300.160490865     -1262.938203713     -1258.948574446        12.852444313
       148          148.000000         3.845488157       300.051314273     -1262.951036943     -1258.962164902        12.944578648
       149          149.000000         3.864628490       301.544774087     -1262.977538629     -1258.968888030        12.178056628
       150          150.000000         3.830139394       298.853698672     -1262.923695565     -1258.948900363        12.881153360
       151          151.000000         3.874439106       302.310265477     -1262.973996024     -1258.954273473        12.247881651
       152          152.000000         3.878638084       302.637898485     -1262.993665907     -1258.969113747        12.176623002
       153          153.000000         3.870325695       301.989309018     -1262.986913771     -1258.970043171        12.231857851
       154          154.000000         3.901718879       304.438820192     -1263.070451646     -1259.021555021        12.860930648
       155          155.000000         3.848323510       300.272547921     -1263.008539792     -1259.012404234        12.877345607
       156          156.000000         3.831837207       298.986173712     -1262.995617336     -1259.015343935        12.886171918
       157          157.000000         3.830117512       298.851991325     -1262.977859210     -1258.998691088        12.851091642
       158          158.000000         3.796007525       296.190496598     -1262.927465256     -1258.981805240        12.959701836
       159          159.000000         3.837818255       299.452855995     -1262.993340181     -1259.005280667        12.849519923
       160          160.000000         3.835028500       299.235180189     -1262.973475298     -1258.987622097        12.918657713
       161          161.000000         3.825332915       298.478664270     -1262.957165511     -1258.980433316        12.869014118
       162          162.000000         3.856610337       300.919142866     -1263.003943189     -1258.995366019        12.911074493
       163          163.000000         3.813559709       297.560038138     -1262.962300809     -1258.996212793        12.921950169
       164          164.000000         3.818738671       297.964136215     -1262.941550208     -1258.969735205        12.874720313
       165          165.000000         3.831088964       298.927790623     -1262.928740352     -1258.944036375        12.916502513
       166          166.000000         3.809078857       297.210411370     -1262.954444809     -1258.991222028        13.568920575
       167          167.000000         3.855334842       300.819620037     -1262.970993591     -1258.960995141        13.559156060
       168          168.000000         3.852533820       300.601065097     -1262.964937365     -1258.957221860        14.232408423
       169          169.000000         3.840455215       299.658609640     -1262.958502240     -1258.962352376        13.570050199
       170          170.000000         3.859794367       301.167582678     -1262.990016537     -1258.974019577        13.503982227
       171          171.000000         3.825025817       298.454702359     -1262.979775710     -1258.998044107        13.623782635
       172          172.000000         3.843074222       299.862962511     -1263.004453626     -1259.004179504        13.531315964
       173          173.000000         3.863477507       301.454966478     -1262.958603267     -1258.937434879        12.882041454
       174          174.000000         3.840357978       299.651022549     -1262.922158114     -1258.923621102        13.543306995
       175          175.000000         3.877301787       302.533631494     -1262.973736935     -1258.937771786        12.916790739
       176          176.000000         3.870956999       302.038567644     -1262.953030398     -1258.922923664        12.898499366
       177          177.000000         3.860671576       301.236028578     -1262.927898635     -1258.907592192        12.862650223
       178          178.000000         3.879193345       302.681223817     -1262.960889798     -1258.921577403        12.926692076
       179          179.000000         3.836937108       299.384102873     -1262.904061169     -1258.906522324        12.933351237
       180          180.000000         3.857931475       301.022227080     -1262.935205063     -1258.916195871        12.876340169
       181          181.000000         3.878103618       302.596195795     -1262.960741639     -1258.921084540        13.509773370
       182          182.000000         3.862948753       301.413709502     -1262.969081634     -1258.944102919        13.584946115
       183          183.000000         3.901266130       304.403493588     -1263.067919984     -1259.004146424        12.867024034
       184          184.000000         3.885556831       303.177746532     -1263.038674690     -1258.990127033        13.572748713
       185          185.000000         3.880615823       302.792215232     -1262.992850650     -1258.948758971        12.887850709
       186          186.000000         3.901474283       304.419735089     -1263.018462310     -1258.953023902        12.851754621
       187          187.000000         3.867250639       301.749372131     -1262.973536249     -1258.941829722        12.848757990
       188          188.000000         3.878554153       302.631349639     -1262.987821337     -1258.944321080        12.880939256
       189          189.000000         3.890355089       303.552139503     -1263.001669227     -1258.945875336        12.901636399
       190          190.000000         3.886698315       303.266812903     -1262.984271276     -1258.931638008        12.900291711
       191          191.000000         3.919200481       305.802854453     -1263.080270594     -1258.994633712        13.505154375
       192          192.000000         3.884143821       303.067493847     -1263.052128573     -1259.001039769        12.816764101
       193          193.000000         3.863560391       301.461433652     -1263.044891530     -1259.013879034        12.881755307
       194          194.000000         3.891556915       303.645914197     -1263.041127915     -1258.981612451        12.895240802
       195          195.000000         3.876468167       302.468586723     -1263.029238124     -1258.984301989        13.500431057
       196          196.000000         3.893005696       303.758957948     -1263.037717789     -1258.975733694        12.910261460
       197          197.000000         3.883756946       303.037307182     -1263.011083115     -1258.957834112        13.051025055
       198          198.000000         3.856240945       300.890320359     -1263.010743977     -1258.984498745        12.826749135
       199          199.000000         3.891254847       303.622344767     -1263.050954785     -1258.989185459        12.858435519
       200          200.000000         3.881380584       302.851887159     -1263.043278777     -1258.990870075        12.860247854
       201          201.000000         3.867250586       301.749367979     -1263.023256078     -1258.984464560        12.958613336
       202          202.000000         3.877334929       302.536217474     -1263.040430235     -1258.991043229        12.860307842
       203          203.000000         3.862132589       301.350026812     -1262.998056000     -1258.963361167        12.836913832
       204          204.000000         3.896452454       304.027897675     -1263.042775302     -1258.973251019        12.255377453
       205          205.000000         3.896215587       304.009415643     -1263.042935767     -1258.973133594        12.848311026
       206          206.000000         3.864241999       301.514617402     -1262.998428816     -1258.960084741        12.900395628
       207          207.000000         3.892345926       303.707478171     -1263.031638781     -1258.964676867        12.875610400
       208          208.000000         3.883627293       303.027190736     -1263.009598922     -1258.950838570        12.929228950
       209          209.000000         3.897170454       304.083920931     -1263.038057241     -1258.965234795        12.933000654
       210          210.000000         3.917389638       305.661560074     -1263.053157001     -1258.959590350        12.849424511
       211          211.000000         3.889640991       303.496420620     -1262.996487493     -1258.930138547        12.878461126
       212          212.000000         3.923327540       306.124875837     -1263.025000332     -1258.924430003        12.883239154
       213          213.000000         3.940359050       307.453790833     -1263.040871230     -1258.922722807        12.902453229
       214          214.000000         3.932263206       306.822097658     -1263.029714049     -1258.919102895        12.886462949
       215          215.000000         3.948625392       308.098787430     -1263.054171237     -1258.926627921        12.905106273
       216          216.000000         3.929473394       306.604417416     -1263.012876588     -1258.903903095        12.912159674
       217          217.000000         3.936955999       307.188261500     -1263.039010856     -1258.921963571        12.845394611
       218          218.000000         3.945018041       307.817317260     -1263.053527766     -1258.927815517        12.930634189
       219          219.000000         3.905567509       304.739116660     -1262.990082384     -1258.903209421        12.221325226
       220          220.000000         3.907500160       304.889915290     -1262.999467517     -1258.910048800        12.878196899
       221          221.000000         3.903410388       304.570803306     -1262.932509120     -1258.846563393        12.202708691
       222          222.000000         3.894159724       303.849003183     -1262.916765290     -1258.839451564        12.962175086
       223          223.000000         3.911292134       305.185791045     -1262.956923344     -1258.861856139        12.249223620
       224          224.000000         3.880049565       302.748031929     -1262.915176673     -1258.850728830        12.228865165
       225          225.000000         3.881238405       302.840793353     -1262.928928864     -1258.862672461        12.217465267
       226          226.000000         3.887210618       303.306786283     -1262.970378001     -1258.897530665        12.258514456
       227          227.000000         3.845996408       300.090971516     -1262.923567934     -1258.891320584        12.247004904