#     Step Nr.          Time[fs]        Kin.[a.u.]          Temp[K]            Pot.[a.u.]        Cons Qty[a.u.]        UsedTime[s]
         0            0.000000         3.843405441       300.000000000     -1337.000044898     -1333.156164434         0.000000000
         1            1.000000         3.522739838       274.970197047     -1336.574913564     -1333.050887138        48.715048462
         2            2.000000         3.479128392       271.566071717     -1336.561043828     -1333.079909696        13.047002440
         3            3.000000         3.576589563       279.173479197     -1336.686213526     -1333.106957417        13.070031984
         4            4.000000         3.506628045       273.712578498     -1336.521450727     -1333.011545377        13.089644847
         5            5.000000         3.781979131       295.205321579     -1336.886163641     -1333.100334823        13.132589698
         6            6.000000         3.644028000       284.437438821     -1336.644997714     -1332.996558111        12.434473388
         7            7.000000         3.632794157       283.560572411     -1336.593302518     -1332.955580846        12.420986727
         8            8.000000         3.984458593       311.010013433     -1337.046529600     -1333.056636121        12.429476127
         9            9.000000         3.786696077       295.573506450     -1336.721873836     -1332.929210398        12.409623196
        10           10.000000         3.746879412       292.465585706     -1336.708496473     -1332.955140450        13.152947696
        11           11.000000         3.731800189       291.288565288     -1336.712827573     -1332.974063173        12.460665099
        12           12.000000         3.680291418       287.268008114     -1336.576110839     -1332.888394048        12.438899102
        13           13.000000         4.088019427       319.093534832     -1337.093183773     -1332.997276649        13.126143498
        14           14.000000         3.985786148       311.113636755     -1336.940719808     -1332.946527355        12.395805076
        15           15.000000         3.835973604       299.419902184     -1336.764683287     -1332.919772732        12.425646808
        16           16.000000         4.042349876       315.528762507     -1337.062316710     -1333.010487143        13.123462142
        17           17.000000         3.910203362       305.213963651     -1336.853677771     -1332.933414192        12.456399275
        18           18.000000         3.975442780       310.306277159     -1336.973387621     -1332.987289492        12.466780607
        19           19.000000         3.854875687       300.895318961     -1336.867924171     -1333.001779497        13.101720987
        20           20.000000         3.645427610       284.546686463     -1336.571845697     -1332.914560443        13.099970954
        21           21.000000         4.040795810       315.407458673     -1337.090770074     -1333.037537296        13.086272534
        22           22.000000         4.017207843       313.566281560     -1337.052423532     -1333.022140277        13.100446805
        23           23.000000         3.845897543       300.194522941     -1336.849651031     -1332.990022578        13.095484016
        24           24.000000         3.860743856       301.353363406     -1336.944601663     -1333.069478347        13.078806767
        25           25.000000         3.652837921       285.125104004     -1336.657955061     -1332.990106483        13.151651096
        26           26.000000         3.878745712       302.758512319     -1336.972118763     -1333.077755770        13.085920447
        27           27.000000         3.869487081       302.035822628     -1336.979761648     -1333.094031020        13.132234059
        28           28.000000         3.562188559       278.049397596     -1336.573717201     -1332.994685440        13.077158740
        29           29.000000         3.814596947       297.751330548     -1336.931976590     -1333.099981375        13.113038821
        30           30.000000         3.854512008       300.866931681     -1336.910056566     -1333.037579119        13.087389428
        31           31.000000         3.866777162       301.824297808     -1336.920308992     -1333.034992880        13.101135399
        32           32.000000         3.864828167       301.672167484     -1336.977465956     -1333.093519236        12.455188857
        33           33.000000         3.513271632       274.231148852     -1336.516046932     -1332.983106604        13.133990871
        34           34.000000         3.773573223       294.549191911     -1336.843922385     -1333.050184936        12.402978763
        35           35.000000         3.969288364       309.825889385     -1337.054265420     -1333.064300613        12.411468584
        36           36.000000         3.776398170       294.769695372     -1336.770528149     -1332.972924614        13.104267381
        37           37.000000         3.905529613       304.849150508     -1336.971837514     -1333.044582207        13.125878764
        38           38.000000         3.832977932       299.186072654     -1336.831937372     -1332.976701058        12.439492749
        39           39.000000         3.966832776       309.634216534     -1336.972064026     -1332.982431599        12.431713387
        40           40.000000         4.103478668       320.300217948     -1337.179852485     -1333.052986731        12.396956872
        41           41.000000         3.695744324       288.474196650     -1336.626100376     -1332.906361277        12.421893520
        42           42.000000         3.807527870       297.199548250     -1336.789198908     -1332.957106305        13.083477929
        43           43.000000         4.031203461       314.658720467     -1337.012583877     -1332.956223083        12.408354331
        44           44.000000         4.025023334       314.176325841     -1336.944761746     -1332.893937268        12.402787564
        45           45.000000         4.135719408       322.816793936     -1337.134921141     -1332.972704855        12.381074771
        46           46.000000         3.832773061       299.170081244     -1336.744342520     -1332.884341977        12.388770856
        47           47.000000         3.877306231       302.646152510     -1336.797629692     -1332.892380302        12.395721026
        48           48.000000         4.152743985       324.145660541     -1337.166834477     -1332.985386500        12.494061399
        49           49.000000         3.866827115       301.828196951     -1336.776162042     -1332.879819697        12.427441873
        50           50.000000         3.835378748       299.373470209     -1336.778626065     -1332.912939392        13.065236591
        51           51.000000         3.836793087       299.483867565     -1336.812432953     -1332.944540906        13.072021272
        52           52.000000         3.898107122       304.269782202     -1336.842821203     -1332.912815177        13.099450819
        53           53.000000         4.190460381       327.089643154     -1337.239294089     -1333.016077899        12.416349851
        54           54.000000         3.838974555       299.654143703     -1336.812041752     -1332.939403355        12.374031147
        55           55.000000         3.670680228       286.517799144     -1336.652450432     -1332.947250555        12.383335324
        56           56.000000         3.891796254       303.777182469     -1336.967036052     -1333.039880422        12.369689170
        57           57.000000         3.825476877       298.600571932     -1336.813653808     -1332.951955581        12.407731643
        58           58.000000         3.934031059       307.073853014     -1336.988499696     -1333.017377214        12.404595355
        59           59.000000         3.770888758       294.339653885     -1336.805537773     -1332.996679779        12.411103170
        60           60.000000         3.664104922       286.004558514     -1336.633303412     -1332.930392268        12.360588307
        61           61.000000         4.053195162       316.375299794     -1337.145700935     -1333.052851808        12.407384533
        62           62.000000         3.895952019       304.101564008     -1336.922753013     -1332.986242127        12.375761401
        63           63.000000         3.700548929       288.849223840     -1336.716843779     -1332.974858984        12.431015337
        64           64.000000         3.727714001       290.969614660     -1336.819407362     -1333.049419654        13.062780377
        65           65.000000         3.674073733       286.782681843     -1336.703454296     -1332.986293671        13.094817784
        66           66.000000         4.000662992       312.274860406     -1337.105085217     -1333.060513984        12.416504623
        67           67.000000         3.920522116       306.019401968     -1337.001619575     -1333.036317011        12.405630535
        68           68.000000         3.670194690       286.479900131     -1336.682234599     -1332.966409878        13.061002513
        69           69.000000         3.925308059       306.392972491     -1337.013639237     -1333.041870265        13.046530396
        70           70.000000         3.897980507       304.259899218     -1336.950877338     -1333.005567896        13.733005308
        71           71.000000         3.894534917       303.990950994     -1336.977381705     -1333.034638808        13.746058475
        72           72.000000         3.846940652       300.275943621     -1336.953730925     -1333.057697037        13.101615259
        73           73.000000         3.629586215       283.310174039     -1336.639516637     -1332.959982795        13.083646402
        74           74.000000         3.986591909       311.176531041     -1337.083218294     -1333.045833981        13.103016824
        75           75.000000         4.064615802       317.266746692     -1337.164565753     -1333.048238759        13.066818910
        76           76.000000         3.820910194       298.244115966     -1336.863446218     -1332.989885106        13.093336843
        77           77.000000         3.871812533       302.217337633     -1336.960242819     -1333.034856565        13.093755620
        78           78.000000         3.760715450       293.545568450     -1336.776970219     -1332.961760846        13.096577154
        79           79.000000         3.934009743       307.072189191     -1336.998967531     -1333.009542565        13.082904309
        80           80.000000         4.013082228       313.244253532     -1337.116910563     -1333.047442098        13.081772393
        81           81.000000         3.691612861       288.151712147     -1336.694362263     -1332.945394777        13.107790623
        82           82.000000         3.894167220       303.962250091     -1336.976308211     -1333.023846838        13.075371722
        83           83.000000         4.014191023       313.330801385     -1337.076300689     -1333.002824337        12.395050954
        84           84.000000         3.932573673       306.960095655     -1336.961240007     -1332.968351773        13.128191471
        85           85.000000         3.947009285       308.086878566     -1337.057536923     -1333.049168337        12.401813114
        86           86.000000         3.654334727       285.241938396     -1336.674693705     -1332.957975580        12.408165941
        87           87.000000         3.791961764       295.984523756     -1336.847158670     -1332.991833437        12.370046278
        88           88.000000         4.007540625       312.811699378     -1337.131493043     -1333.059567362        12.427131809
        89           89.000000         3.762889924       293.715298706     -1336.796453824     -1332.968136403        12.375753360
        90           90.000000         3.813016480       297.627965988     -1336.921082814     -1333.041627784        12.384744603
        91           91.000000         3.793313869       296.090063354     -1336.889256040     -1333.028493021        12.378178524
        92           92.000000         3.821483648       298.288877395     -1336.893218619     -1333.003279656        13.105504103
        93           93.000000         3.978294662       310.528882959     -1337.128827676     -1333.081044962        13.062389297
        94           94.000000         3.644955236       284.509814910     -1336.709248793     -1332.993778393        13.097824294
        95           95.000000         3.663603071       285.965386204     -1336.742602505     -1333.007525952        13.069481434
        96           96.000000         3.903046277       304.655311761     -1337.012841320     -1333.037356386        13.086457143
        97           97.000000         3.840162632       299.746879982     -1336.856966214     -1332.943369713        12.395887166
        98           98.000000         3.938998155       307.461563571     -1337.018128825     -1333.004690377        13.060350036
        99           99.000000         3.776439892       294.772952016     -1336.811818368     -1332.959924345        13.075526860
       100          100.000000         3.749523146       292.671944467     -1336.731970220     -1332.906010725        12.367160723
       101          101.000000         4.030867546       314.632500313     -1337.109434649     -1333.001123341        12.387718348
       102          102.000000         3.827967287       298.794962893     -1336.797010523     -1332.890553053        13.052858621
       103          103.000000         3.776209303       294.754953212     -1336.757230503     -1332.901514594        13.083209831
       104          104.000000         3.867176986       301.855506396     -1336.874342176     -1332.926643668        13.084705502
       105          105.000000         3.847514315       300.320721307     -1336.784129666     -1332.855064360        12.374734398
       106          106.000000         4.067158202       317.465195676     -1337.088624935     -1332.938849216        12.385199567
       107          107.000000         3.875306810       302.490086110     -1336.844287718     -1332.885254635        13.063599421
       108          108.000000         3.717825741       290.197778831     -1336.626381459     -1332.823758952        13.105146652
       109          109.000000         3.963655555       309.386216121     -1336.956056444     -1332.906533061        13.058811232
       110          110.000000         3.885617657       303.294907309     -1336.803166950     -1332.830567603        13.120255794
       111          111.000000         3.903371640       304.680708262     -1336.858397084     -1332.866924229        13.117233317
       112          112.000000         3.870588734       302.121813033     -1336.841581342     -1332.881760026        13.060449826
       113          113.000000         3.744832651       292.305824195     -1336.644331674     -1332.809151945        13.101223251
       114          114.000000         4.016317138       313.496756949     -1336.998478771     -1332.890685438        13.096445344
       115          115.000000         3.914487126       305.548336152     -1336.871064037     -1332.863917917        13.068642888
       116          116.000000         3.711010096       289.665778403     -1336.621592118     -1332.816771046        13.059331434
       117          117.000000         3.811466955       297.507016624     -1336.795617940     -1332.889219211        13.048200892
       118          118.000000         3.744611326       292.288548512     -1336.673874843     -1332.833213424        13.052662022
       119          119.000000         3.886189485       303.339541824     -1336.862109362     -1332.878752094        13.045782195
       120          120.000000         3.859474138       301.254254636     -1336.845763012     -1332.887979420        13.109459531
       121          121.000000         3.635196719       283.748106272     -1336.545062095     -1332.810450161        13.082028240
       122          122.000000         3.849417858       300.469303841     -1336.860363389     -1332.910453600        12.361285821
       123          123.000000         3.843203746       299.984256496     -1336.822917524     -1332.878116860        13.064563727
       124          124.000000         3.749938280       292.704348033     -1336.705948034     -1332.853321845        13.056177877
       125          125.000000         3.779329274       294.998484953     -1336.791313121     -1332.908227082        13.089324495
       126          126.000000         3.623468007       282.832612535     -1336.572264889     -1332.844003600        13.039352791
       127          127.000000         3.842691017       299.944235085     -1336.840701427     -1332.892203420        13.046877656
       128          128.000000         3.933079772       306.999599611     -1336.956251526     -1332.916310010        13.033078628
       129          129.000000         3.702280384       288.984373891     -1336.646847933     -1332.836658086        13.030099194
       130          130.000000         3.818587597       298.062823884     -1336.827070639     -1332.899558649        13.029395919
       131          131.000000         3.818054366       298.021202133     -1336.795955614     -1332.867951980        13.017824816
       132          132.000000         3.847310027       300.304775478     -1336.817650300     -1332.859364507        13.042127885
       133          133.000000         3.912001759       305.354338883     -1336.953421404     -1332.929401011        13.063155394
       134          134.000000         3.660309025       285.708266834     -1336.613135240     -1332.839782040        13.057519576
       135          135.000000         3.798382270       296.485681368     -1336.793952084     -1332.881539770        13.052000098
       136          136.000000         3.945860891       307.997239769     -1336.971520515     -1332.910612689        13.038571279
       137          137.000000         3.792904307       296.058094711     -1336.777854177     -1332.868871796        13.090579022
       138          138.000000         3.821766732       298.310973717     -1336.858349492     -1332.919493617        13.054023946
       139          139.000000         3.704395454       289.149467315     -1336.694930610     -1332.872452571        12.369246339
       140          140.000000         3.781902215       295.199317878     -1336.769470558     -1332.868518172        12.398875836
       141          141.000000         3.953089167       308.561448446     -1337.006551338     -1332.933420354        12.383348342
       142          142.000000         3.713525505       289.862120548     -1336.689064519     -1332.854500881        12.382351600
       143          143.000000         3.744124304       292.250533593     -1336.751963927     -1332.885849225        12.388122475
       144          144.000000         3.835358710       299.371906129     -1336.862449863     -1332.904149260        12.371405805
       145          145.000000         3.811883565       297.539535455     -1336.797886402     -1332.862103612        12.407141354
       146          146.000000         3.920462428       306.014743013     -1336.968837222     -1332.923508811        12.356934905
       147          147.000000         3.714953155       289.973556917     -1336.702901604     -1332.862118564        12.383478854
       148          148.000000         3.714708347       289.954448223     -1336.698149488     -1332.856691520        12.360985849
       149          149.000000         3.951300197       308.421809065     -1337.005894168     -1332.926913406        12.395932660
       150          150.000000         3.841054371       299.816485351     -1336.834007284     -1332.864311272        12.388705026
       151          151.000000         3.854960954       300.901974510     -1336.879739110     -1332.895182889        12.377702752
       152          152.000000         3.836022484       299.423717524     -1336.871916443     -1332.905342445        13.027635531
       153          153.000000         3.818075528       298.022853932     -1336.811950277     -1332.862371267        12.364813551
       154          154.000000         4.033935870       314.872000765     -1337.105969461     -1332.939550800        13.070059260
       155          155.000000         3.869204228       302.013744363     -1336.892838389     -1332.890134704        13.055319957
       156          156.000000         3.772266837       294.447220914     -1336.786342269     -1332.879584211        13.019722773
       157          157.000000         3.927276886       306.546650800     -1336.997863065     -1332.935101772        13.057850767
       158          158.000000         3.885633359       303.296132951     -1336.911293938     -1332.889154502        13.037744528
       159          159.000000         3.964406712       309.444848239     -1337.042663148     -1332.940710203        13.020870697
       160          160.000000         3.861984117       301.450172971     -1336.929367726     -1332.928778549        13.013519192
       161          161.000000         3.736187494       291.631019749     -1336.752950722     -1332.877125215        13.033619160
       162          162.000000         3.958681498       308.997962226     -1337.050071711     -1332.950717042        13.029386846
       163          163.000000         3.900997841       304.495419524     -1336.948198068     -1332.905451531        12.356350299
       164          164.000000         3.821424589       298.284267441     -1336.859022665     -1332.894779786        13.007211065
       165          165.000000         3.850497469       300.553573717     -1336.917306954     -1332.922928478        12.382019356
       166          166.000000         3.775195065       294.675786018     -1336.787440043     -1332.867307093        12.357594764
       167          167.000000         3.960072888       309.106568236     -1337.021190938     -1332.915113528        12.374294836
       168          168.000000         3.915565414       305.632502757     -1336.966563038     -1332.903887414        13.032454032
       169          169.000000         3.726746787       290.894118035     -1336.713946753     -1332.839004347        13.069862470
       170          170.000000         3.872164040       302.244774771     -1336.924066408     -1332.902640735        13.052322984
       171          171.000000         3.870182216       302.090081998     -1336.887813062     -1332.867279357        12.344226263
       172          172.000000         3.912889823       305.423657429     -1336.934517837     -1332.870172786        13.055896884
       173          173.000000         3.935244395       307.168560955     -1336.984960957     -1332.897133134        12.358598590
       174          174.000000         3.762891973       293.715458661     -1336.746065135     -1332.829468097        12.336500185
       175          175.000000         3.923438455       306.247039101     -1336.960794466     -1332.882537328        12.391402107
       176          176.000000         3.972604424       310.084727075     -1337.011128237     -1332.882546074        12.357389465
       177          177.000000         3.838862050       299.645362057     -1336.837440671     -1332.841431335        12.322208349
       178          178.000000         3.892654026       303.844136561     -1336.947670781     -1332.896706696        12.347375775
       179          179.000000         3.824554828       298.528600732     -1336.840409636     -1332.856376066        12.375323717
       180          180.000000         3.907468197       305.000468200     -1336.942170086     -1332.874051010        12.361126740
       181          181.000000         3.979097309       310.591534241     -1337.042252992     -1332.901295222        12.369068272
       182          182.000000         3.786790594       295.580884069     -1336.784568914     -1332.834705106        12.372584121
       183          183.000000         3.865003709       301.685869609     -1336.905899075     -1332.876630772        12.345480625
       184          184.000000         3.907062070       304.968767610     -1336.956499620     -1332.883958534        12.340308296
       185          185.000000         3.856697556       301.037526328     -1336.879218196     -1332.855817257        12.348977178
       186          186.000000         3.929411625       306.713279517     -1337.005632183     -1332.908282796        12.352053758
       187          187.000000         3.804572879       296.968894183     -1336.834318022     -1332.860568453        12.357736278
       188          188.000000         3.872431627       302.265661512     -1336.911789344     -1332.868953756        12.392538613
       189          189.000000         3.991862405       311.587923692     -1337.068927740     -1332.905396551        12.360484496
       190          190.000000         3.832565343       299.153867694     -1336.863346249     -1332.857830582        13.049237058
       191          191.000000         3.854519690       300.867531298     -1336.919951573     -1332.891220081        12.367232274
       192          192.000000         3.839894603       299.725958808     -1336.898674997     -1332.883304752        12.352247182
       193          193.000000         3.833919151       299.259540191     -1336.879778833     -1332.869124376        12.386020716
       194          194.000000         3.960162274       309.113545369     -1337.065339275     -1332.927161282        12.352322076
       195          195.000000         3.812635469       297.598225844     -1336.866610185     -1332.874666105        12.346758524
       196          196.000000         3.809825322       297.378877699     -1336.870350053     -1332.879951504        12.382943599
       197          197.000000         3.921913071       306.127974102     -1337.019258809     -1332.915494591        12.347881505
       198          198.000000         3.837890146       299.569499365     -1336.890949694     -1332.869916129        12.338155383
       199          199.000000         3.870504129       302.115209113     -1336.958882682     -1332.903950925        12.355292708
       200          200.000000         3.788069636       295.680720685     -1336.862310190     -1332.888535987        12.378869763
       201          201.000000         3.755220301       293.116640301     -1336.812028340     -1332.869857066        12.407545092
       202          202.000000         3.939338418       307.488123093     -1337.051534093     -1332.923987419        12.375300184
       203          203.000000         3.867061934       301.846525903     -1336.956781182     -1332.900224563        12.376877604
       204          204.000000         3.840094670       299.741575200     -1336.932242443     -1332.901379378        13.088897873
       205          205.000000         3.895378369       304.056787262     -1337.011546119     -1332.924122035        12.353792887
       206          206.000000         3.862401237       301.482731590     -1336.944936638     -1332.889203120        12.351722337
       207          207.000000         3.981978562       310.816432656     -1337.107181717     -1332.930565071        12.393846372
       208          208.000000         3.912063345       305.359146070     -1337.019862038     -1332.911826256        12.359721346
       209          209.000000         3.825845602       298.629353096     -1336.902622139     -1332.879486132        12.352940304
       210          210.000000         3.968520702       309.765968969     -1337.104368412     -1332.937231156        12.374487488
       211          211.000000         3.932340917       306.941927710     -1337.030428076     -1332.898109318        13.042919317
       212          212.000000         3.943664836       307.825824985     -1337.052703766     -1332.907688983        13.074514618
       213          213.000000         3.936894513       307.297362141     -1337.055852421     -1332.916219686        13.024293393
       214          214.000000         3.814778248       297.765482159     -1336.885894315     -1332.867001315        12.378267052
       215          215.000000         3.932226938       306.933031012     -1337.052728259     -1332.915015897        12.359163124
       216          216.000000         3.913481949       305.469876271     -1337.025913529     -1332.905549077        12.387547618
       217          217.000000         3.823338794       298.433682261     -1336.917842360     -1332.886237055        12.388437651
       218          218.000000         3.892937816       303.866288025     -1337.030752137     -1332.928173829        12.392290015
       219          219.000000         3.831856029       299.098501615     -1336.938938644     -1332.896066606        12.410161210
       220          220.000000         3.883989623       303.167829882     -1337.008188637     -1332.911815566        12.367383938
       221          221.000000         3.901598731       304.542322456     -1337.047719721     -1332.932357791        12.363278689
       222          222.000000         3.762072170       293.651468292     -1336.848185662     -1332.870992080        12.371429989
       223          223.000000         3.844879431       300.115053397     -1336.969829084     -1332.908498680        12.411314778
       224          224.000000         3.856182367       300.997312847     -1336.963785418     -1332.889815812        12.351794131
       225          225.000000         3.820967040       298.248553104     -1336.909124924     -1332.869045710        12.378747797
       226          226.000000         3.884332915       303.194625789     -1337.004238740     -1332.899474838        12.393220546
       227          227.000000         3.798860607       296.523018285     -1336.890753845     -1332.870151941        13.055728039