#     Step Nr.          Time[fs]        Kin.[a.u.]          Temp[K]            Pot.[a.u.]        Cons Qty[a.u.]        UsedTime[s]
         0            0.000000         3.843405441       300.000000000     -1268.414711780     -1264.570831316         0.000000000
         1            1.000000         3.667904967       286.301174051     -1268.187114133     -1264.517903277        47.660841919
         2            2.000000         3.644505017       284.474672706     -1268.181368683     -1264.534778702        13.324126933
         3            3.000000         3.704790275       289.180285442     -1268.272117130     -1264.564494956        12.743194593
         4            4.000000         3.677801983       287.073693326     -1268.149831440     -1264.468475800        12.773338011
         5            5.000000         3.840119057       299.743478723     -1268.315720930     -1264.471341027        12.734515695
         6            6.000000         3.775043842       294.663982179     -1268.232570912     -1264.452555964        12.765499201
         7            7.000000         3.749088145       292.637990131     -1268.203113567     -1264.448364854        12.096962940
         8            8.000000         3.918219750       305.839689066     -1268.435945473     -1264.511376406        12.148732956
         9            9.000000         3.782356680       295.234791451     -1268.233313402     -1264.443908150        12.731548207
        10           10.000000         3.750579350       292.754387252     -1268.241332535     -1264.483029787        12.781370904
        11           11.000000         3.758948377       293.407638168     -1268.279408703     -1264.512081171        12.735367268
        12           12.000000         3.710726736       289.643660475     -1268.171747032     -1264.452006394        12.720261799
        13           13.000000         3.915875805       305.656730592     -1268.469227849     -1264.543709927        12.720880946
        14           14.000000         3.870109847       302.084433123     -1268.378216027     -1264.497814090        12.735923450
        15           15.000000         3.794306007       296.167505503     -1268.305728597     -1264.500485770        13.371036492
        16           16.000000         3.904465877       304.766119745     -1268.486986277     -1264.570940804        12.785795629
        17           17.000000         3.796320278       296.324730934     -1268.332676342     -1264.524126402        12.724855924
        18           18.000000         3.814458116       297.740494038     -1268.379252307     -1264.551927868        12.714534419
        19           19.000000         3.788309360       295.699432508     -1268.347281276     -1264.545476000        13.380510291
        20           20.000000         3.689050787       287.951727407     -1268.192699775     -1264.489545871        12.733211668
        21           21.000000         3.893394337       303.901922090     -1268.481043470     -1264.572952929        12.747661665
        22           22.000000         3.877636429       302.671926371     -1268.440216356     -1264.547270788        12.730762783
        23           23.000000         3.811228763       297.488424321     -1268.374646742     -1264.547496286        12.750820957
        24           24.000000         3.859149750       301.228934269     -1268.466788547     -1264.591109039        12.742287116
        25           25.000000         3.736852385       291.682918334     -1268.271936122     -1264.517952298        12.721520709
        26           26.000000         3.846981259       300.279113198     -1268.451967530     -1264.587268877        12.733868871
        27           27.000000         3.868561208       301.963552906     -1268.490930504     -1264.604056608        12.776332764
        28           28.000000         3.746333829       292.422999791     -1268.288888319     -1264.523652173        12.735959288
        29           29.000000         3.908303523       305.065670199     -1268.556314788     -1264.628527851        12.719280502
        30           30.000000         3.904623175       304.778397788     -1268.507911209     -1264.583201781        12.724099709
        31           31.000000         3.867648700       301.892326421     -1268.433943049     -1264.545596089        12.707331084
        32           32.000000         3.872079089       302.238143858     -1268.499334245     -1264.605940699        12.749842215
        33           33.000000         3.683825856       287.543891410     -1268.276640993     -1264.570897303        12.737001767
        34           34.000000         3.809354667       297.342140319     -1268.442545579     -1264.610697479        12.715282492
        35           35.000000         3.912057002       305.358650953     -1268.536116334     -1264.600979208        12.740665901
        36           36.000000         3.805326844       297.027745449     -1268.378871591     -1264.549868820        12.739966044
        37           37.000000         3.891077205       303.721056542     -1268.523130626     -1264.607785140        12.755951688
        38           38.000000         3.824317940       298.510110213     -1268.365105267     -1264.515918504        12.728639986
        39           39.000000         3.825409693       298.595327906     -1268.362119105     -1264.511246231        12.739748066
        40           40.000000         3.873889892       302.379487489     -1268.440510297     -1264.540560363        12.704711484
        41           41.000000         3.674084699       286.783537784     -1268.176606938     -1264.475876014        12.745794352
        42           42.000000         3.763747361       293.782226634     -1268.275701931     -1264.484755553        12.105241330
        43           43.000000         3.870159060       302.088274467     -1268.425348739     -1264.527437549        12.695377793
        44           44.000000         3.830745576       299.011824340     -1268.417623956     -1264.558565426        12.736019989
        45           45.000000         3.913902804       305.502726431     -1268.541598406     -1264.598816894        13.323995186
        46           46.000000         3.753521816       292.984063771     -1268.332963629     -1264.549993793        13.380126081
        47           47.000000         3.744763240       292.300406313     -1268.289138551     -1264.514383144        12.694840359
        48           48.000000         3.873837903       302.375429467     -1268.475917631     -1264.571549598        13.324465472
        49           49.000000         3.731140199       291.237049181     -1268.295587003     -1264.533379046        12.716529178
        50           50.000000         3.778035879       294.897527951     -1268.396332267     -1264.586713857        13.324286815
        51           51.000000         3.813282306       297.648715252     -1268.405526864     -1264.560153513        12.712022273
        52           52.000000         3.800855995       296.678769844     -1268.324325701     -1264.490874443        12.714268027
        53           53.000000         3.939732673       307.518896950     -1268.516287363     -1264.543450206        12.699065236
        54           54.000000         3.765753043       293.938781668     -1268.226504809     -1264.427127537        12.700583927
        55           55.000000         3.714752919       289.957927375     -1268.157131627     -1264.408260565        12.709960932
        56           56.000000         3.855437607       300.939180043     -1268.319878223     -1264.429841916        12.711449128
        57           57.000000         3.821272021       298.272358701     -1268.250064345     -1264.393706766        12.718845800
        58           58.000000         3.915254637       305.608244833     -1268.421051575     -1264.470220433        12.718363622
        59           59.000000         3.868700193       301.974401521     -1268.300033255     -1264.395250065        12.706265785
        60           60.000000         3.804755805       296.983172573     -1268.220747178     -1264.379402810        12.726859272
        61           61.000000         3.964304157       309.436843231     -1268.435226147     -1264.433821976        12.729401652
        62           62.000000         3.866060397       301.768350169     -1268.278572192     -1264.374876541        12.730468540
        63           63.000000         3.788844522       295.741205039     -1268.189669196     -1264.362659239        12.738926843
        64           64.000000         3.841124322       299.821945460     -1268.272546449     -1264.392733986        12.701652439
        65           65.000000         3.803740997       296.903960975     -1268.191170510     -1264.348218404        12.066064345
        66           66.000000         3.966845313       309.635195184     -1268.351960469     -1264.345373393        12.750229482
        67           67.000000         3.915811823       305.651736439     -1268.283480491     -1264.327366761        12.733631611
        68           68.000000         3.774316260       294.607190210     -1268.093612046     -1264.278432995        12.725871354
        69           69.000000         3.895673850       304.079851282     -1268.271079120     -1264.333988052        12.737677418
        70           70.000000         3.841576980       299.857278034     -1268.197946188     -1264.314384311        12.722892683
        71           71.000000         3.826547644       298.684151498     -1268.196363364     -1264.327265241        12.756066471
        72           72.000000         3.828789776       298.859162891     -1268.221878354     -1264.349973987        12.710241172
        73           73.000000         3.736685477       291.669890241     -1268.074966146     -1264.294611343        12.747862933
        74           74.000000         3.923226349       306.230483021     -1268.300557373     -1264.333111942        12.713546520
        75           75.000000         3.925660534       306.420485175     -1268.299985536     -1264.329528431        12.736011177
        76           76.000000         3.767708220       294.091394496     -1268.151947270     -1264.338861355        12.724681821
        77           77.000000         3.795680420       296.274786348     -1268.231700181     -1264.390078407        12.701650344
        78           78.000000         3.715970070       290.052933026     -1268.099295329     -1264.336833360        12.079044905
        79           79.000000         3.797397462       296.408811398     -1268.181598977     -1264.337177361        12.073468039
        80           80.000000         3.845536714       300.166358111     -1268.290210490     -1264.397115463        12.075101439
        81           81.000000         3.687357976       287.819593797     -1268.077782490     -1264.342341636        12.737981016
        82           82.000000         3.802659836       296.819570120     -1268.236502560     -1264.385259506        12.741929963
        83           83.000000         3.829488292       298.913686121     -1268.255948393     -1264.377374614        12.073516186
        84           84.000000         3.756201570       293.193234054     -1268.159756706     -1264.353972957        12.084165197
        85           85.000000         3.775250399       294.680105194     -1268.236994358     -1264.411680823        12.086228034
        86           86.000000         3.640731399       284.180120032     -1268.065999204     -1264.374745214        12.083219137
        87           87.000000         3.741350716       292.034039033     -1268.177923789     -1264.385624085        12.154403187
        88           88.000000         3.856788426       301.044619299     -1268.338857501     -1264.430698454        12.102895699
        89           89.000000         3.710279900       289.608782341     -1268.156364961     -1264.394295784        12.080794977
        90           90.000000         3.739138147       291.861335249     -1268.208255127     -1264.416934725        12.094788335
        91           91.000000         3.719235586       290.307825429     -1268.176669589     -1264.404877303        12.101749472
        92           92.000000         3.730137716       291.158799615     -1268.221096619     -1264.438049254        12.090251435
        93           93.000000         3.824063138       298.490221452     -1268.382193533     -1264.504880830        12.732142251
        94           94.000000         3.671048960       286.546580835     -1268.135269884     -1264.410641572        12.751515022
        95           95.000000         3.735146560       291.549768824     -1268.190246505     -1264.401220727        12.737333335
        96           96.000000         3.868941185       301.993212302     -1268.357731773     -1264.434621111        12.730081605
        97           97.000000         3.796532983       296.341333834     -1268.264297021     -1264.413299917        12.708405947
        98           98.000000         3.831186639       299.046251912     -1268.338113569     -1264.452174178        12.733183155
        99           99.000000         3.736566328       291.660589922     -1268.221688535     -1264.430086557        12.718550723
       100          100.000000         3.749174170       292.644704869     -1268.221903672     -1264.417430218        12.738733085
       101          101.000000         3.924985188       306.367770546     -1268.447007717     -1264.466465701        12.733671080
       102          102.000000         3.804006065       296.924651062     -1268.290084314     -1264.430251060        12.730407719
       103          103.000000         3.799747037       296.592209339     -1268.288870002     -1264.433032565        12.754315795
       104          104.000000         3.872786653       302.293373292     -1268.370964779     -1264.441826790        12.711097455
       105          105.000000         3.851314172       300.617322108     -1268.297362598     -1264.389428679        12.743473314
       106          106.000000         3.950198837       308.335841510     -1268.449366407     -1264.442269701        12.733284025
       107          107.000000         3.812840601       297.614237613     -1268.304441123     -1264.434407923        12.774800498
       108          108.000000         3.730711047       291.203551436     -1268.199552982     -1264.411364988        12.732694669
       109          109.000000         3.890426169       303.670239425     -1268.417946959     -1264.469770476        12.750775283
       110          110.000000         3.856037802       300.986028756     -1268.355670093     -1264.441596959        12.755517548
       111          111.000000         3.863608842       301.576992159     -1268.385911422     -1264.463976947        12.751496004
       112          112.000000         3.816709998       297.916266447     -1268.312581829     -1264.437251944        12.758049209
       113          113.000000         3.743845283       292.228754396     -1268.224562644     -1264.421810889        12.754429420
       114          114.000000         3.910533998       305.239771711     -1268.445402255     -1264.475682749        12.748322843
       115          115.000000         3.857007066       301.061685384     -1268.365169170     -1264.448682575        12.111660222
       116          116.000000         3.776464101       294.774841640     -1268.232318158     -1264.396080554        12.098513238
       117          117.000000         3.864619660       301.655892320     -1268.365266339     -1264.440585023        12.727310434
       118          118.000000         3.849307512       300.460690675     -1268.319772192     -1264.410107380        12.132222099
       119          119.000000         3.953843071       308.620295050     -1268.450499276     -1264.435992312        12.120859709
       120          120.000000         3.913638343       305.482083728     -1268.427704279     -1264.453070615        12.762630660
       121          121.000000         3.769178375       294.206148637     -1268.255418822     -1264.424906343        12.758055966
       122          122.000000         3.918350162       305.849868469     -1268.439377212     -1264.459357630        12.716731157
       123          123.000000         3.947020296       308.087738040     -1268.403173423     -1264.394124374        12.710431764
       124          124.000000         3.947157053       308.098412686     -1268.427025913     -1264.417454590        12.762719907
       125          125.000000         3.976690094       310.403637153     -1268.470716821     -1264.431198586        12.697297573
       126          126.000000         3.870227399       302.093608738     -1268.309964490     -1264.376470356        12.713107605
       127          127.000000         3.987833400       311.273436586     -1268.443503263     -1264.391947088        12.730864214
       128          128.000000         4.003770705       312.517435316     -1268.475797241     -1264.407806727        12.693523459
       129          129.000000         3.842637589       299.940064656     -1268.272500233     -1264.365120397        12.712944848
       130          130.000000         3.883413307       303.122845041     -1268.338693323     -1264.390011668        12.720825993
       131          131.000000         3.867534980       301.883449881     -1268.299356149     -1264.366011522        12.707713487
       132          132.000000         3.929371669       306.710160768     -1268.366348830     -1264.370608900        12.734749280
       133          133.000000         3.985714013       311.108006188     -1268.462216920     -1264.409542335        12.705859590
       134          134.000000         3.816854489       297.927544764     -1268.241686783     -1264.357256781        12.717574313
       135          135.000000         3.870234068       302.094129330     -1268.332534703     -1264.394110633        12.778259011
       136          136.000000         3.917621311       305.792977443     -1268.397517858     -1264.411070084        12.721995709
       137          137.000000         3.829713341       298.931252432     -1268.258301551     -1264.359108197        12.707271004
       138          138.000000         3.839579513       299.701364181     -1268.302430008     -1264.392714620        12.712065561
       139          139.000000         3.739411526       291.882674108     -1268.172025059     -1264.361823748        12.718224259
       140          140.000000         3.792254305       296.007358286     -1268.224396899     -1264.360710369        12.074577654
       141          141.000000         3.906478327       304.923203146     -1268.386202310     -1264.407634235        12.710852394
       142          142.000000         3.779328902       294.998455894     -1268.205918961     -1264.353827674        12.734826632
       143          143.000000         3.788972004       295.751155693     -1268.240269553     -1264.377872219        12.719756562
       144          144.000000         3.805480943       297.039773782     -1268.257058267     -1264.377487427        12.686147895
       145          145.000000         3.808184055       297.250767296     -1268.226501905     -1264.343559507        12.714280687
       146          146.000000         3.909978997       305.196450636     -1268.353479129     -1264.368058373        12.704432420
       147          147.000000         3.797396756       296.408756312     -1268.202768091     -1264.329228609        12.702417709
       148          148.000000         3.797342634       296.404531772     -1268.192939119     -1264.318758553        12.088165116
       149          149.000000         3.899725201       304.396082637     -1268.322564737     -1264.345292619        12.081226582
       150          150.000000         3.821617214       298.299302959     -1268.206717064     -1264.306823661        12.083914194
       151          151.000000         3.852801950       300.733451809     -1268.270945465     -1264.339132455        12.126078846
       152          152.000000         3.835677628       299.396799497     -1268.246423092     -1264.330985644        12.040847424
       153          153.000000         3.848422039       300.391574413     -1268.227865497     -1264.298923922        12.070651319
       154          154.000000         4.000253714       312.242913875     -1268.433732748     -1264.352166068        12.071514623
       155          155.000000         3.937692124       307.359620358     -1268.329054992     -1264.309207364        12.698988995
       156          156.000000         3.918638653       305.872386850     -1268.297551533     -1264.295889033        12.751459057
       157          157.000000         3.974099543       310.201429719     -1268.347383652     -1264.289355747        12.714638766
       158          158.000000         3.916058881       305.671020685     -1268.256402911     -1264.255472293        12.737881165
       159          159.000000         3.979606341       310.631267143     -1268.360996285     -1264.295539926        12.735114157
       160          160.000000         3.915860919       305.655568633     -1268.303121702     -1264.300391211        12.740675209
       161          161.000000         3.856500387       301.022136174     -1268.220121023     -1264.275715462        12.736983994
       162          162.000000         3.990969453       311.518223669     -1268.388158220     -1264.308212352        12.039470993
       163          163.000000         3.930847196       306.825334180     -1268.287859556     -1264.266910796        12.697439782
       164          164.000000         3.899253068       304.359229895     -1268.260248842     -1264.269744411        12.697769351
       165          165.000000         3.911124433       305.285858575     -1268.273057241     -1264.269502430        12.709329622
       166          166.000000         3.840641169       299.784232547     -1268.161511879     -1264.227238680        12.086356847
       167          167.000000         3.916868967       305.734252601     -1268.316524822     -1264.304797600        12.725828178
       168          168.000000         3.874129619       302.398199606     -1268.258885184     -1264.288633116        12.676336931
       169          169.000000         3.773706905       294.559626553     -1268.155288487     -1264.284192546        12.699279709
       170          170.000000         3.842428244       299.923724127     -1268.236789738     -1264.295699573        12.704683069
       171          171.000000         3.806410089       297.112299017     -1268.195600792     -1264.289231976        12.734020067
       172          172.000000         3.826754349       298.700286018     -1268.251972197     -1264.323949451        12.075122245
       173          173.000000         3.827866645       298.787107149     -1268.250201713     -1264.319735482        12.096972054
       174          174.000000         3.757127203       293.265485053     -1268.128964086     -1264.267901487        12.073537894
       175          175.000000         3.867887611       301.910974784     -1268.274039726     -1264.300864637        12.746856490
       176          176.000000         3.856740453       301.040874693     -1268.240400608     -1264.276979012        12.095058257
       177          177.000000         3.783045783       295.288579947     -1268.182766332     -1264.291637883        12.091889814
       178          178.000000         3.818043081       298.020321252     -1268.247171852     -1264.319638805        12.737680726
       179          179.000000         3.772277042       294.448017487     -1268.187069047     -1264.303881737        12.704579525
       180          180.000000         3.850427707       300.548128412     -1268.289172670     -1264.326397208        12.088928293
       181          181.000000         3.875148733       302.477747306     -1268.329408623     -1264.340432799        12.711725460
       182          182.000000         3.776610177       294.786243730     -1268.218189576     -1264.326261629        12.687844153
       183          183.000000         3.871371742       302.182931362     -1268.368700290     -1264.380506897        12.726401465
       184          184.000000         3.889040325       303.562066340     -1268.376676197     -1264.369261966        12.083272416
       185          185.000000         3.862975809       301.527580260     -1268.359719273     -1264.376788238        12.701068457
       186          186.000000         3.883884225       303.159602943     -1268.417357093     -1264.411909469        12.698573930
       187          187.000000         3.789990259       295.830636424     -1268.291963293     -1264.378788948        12.717410102
       188          188.000000         3.853096417       300.756436607     -1268.374843677     -1264.396933273        12.090128597
       189          189.000000         3.915218866       305.605452721     -1268.464965402     -1264.423251463        12.708483724
       190          190.000000         3.816347706       297.887987466     -1268.333481275     -1264.388932767        12.734234123
       191          191.000000         3.851344870       300.619718259     -1268.400543622     -1264.419286239        12.717839945
       192          192.000000         3.851507640       300.632423443     -1268.375432603     -1264.392270324        12.693563670
       193          193.000000         3.859423519       301.250303530     -1268.346313087     -1264.353467514        12.710506279
       194          194.000000         3.901095929       304.503075846     -1268.419129404     -1264.382807027        12.706032947
       195          195.000000         3.779849344       295.039079381     -1268.262989983     -1264.346099960        12.763300296
       196          196.000000         3.810880907       297.461272205     -1268.330712332     -1264.380986166        12.731604164
       197          197.000000         3.888597383       303.527492108     -1268.417067574     -1264.387779679        12.104553739
       198          198.000000         3.848363587       300.387011887     -1268.332919313     -1264.341985170        12.719155611
       199          199.000000         3.860647237       301.345821738     -1268.353926874     -1264.348814238        12.714132242
       200          200.000000         3.782409298       295.238898611     -1268.266297823     -1264.337524810        12.699926281
       201          201.000000         3.787766584       295.657065765     -1268.269187560     -1264.333169206        12.778769331
       202          202.000000         3.880890121       302.925895776     -1268.448508042     -1264.417445120        12.759095091
       203          203.000000         3.800791463       296.673732798     -1268.373569059     -1264.420660779        12.718640545
       204          204.000000         3.795543947       296.264133811     -1268.375922205     -1264.426329765        12.735974438
       205          205.000000         3.827045528       298.723014233     -1268.436272112     -1264.453233225        12.730993107
       206          206.000000         3.827456163       298.755066687     -1268.444890863     -1264.459477999        12.739263544
       207          207.000000         3.897542567       304.225715425     -1268.548235410     -1264.490742401        12.770676427
       208          208.000000         3.813810370       297.689933698     -1268.441888570     -1264.466117673        12.721606439
       209          209.000000         3.778600926       294.941633143     -1268.401086043     -1264.458538169        12.711110672
       210          210.000000         3.877621621       302.670770492     -1268.544472235     -1264.500898918        12.730849408
       211          211.000000         3.861122933       301.382952546     -1268.509353287     -1264.480237951        12.725697542
       212          212.000000         3.873858030       302.377000513     -1268.528726594     -1264.484822596        12.748592503
       213          213.000000         3.855391562       300.935585978     -1268.509689578     -1264.482186051        12.751710998
       214          214.000000         3.835090733       299.350988979     -1268.466621482     -1264.457353140        12.723436456
       215          215.000000         3.933517419       307.033760479     -1268.598754282     -1264.488964491        12.730246410
       216          216.000000         3.875222654       302.483517270     -1268.526081124     -1264.472460461        12.727123963
       217          217.000000         3.805739283       297.059938740     -1268.444852166     -1264.458613200        12.705510780
       218          218.000000         3.850311862       300.539086010     -1268.511419138     -1264.478513727        12.730253454
       219          219.000000         3.841036542       299.815093687     -1268.512130685     -1264.486394426        12.707750453
       220          220.000000         3.897345438       304.210328346     -1268.593169930     -1264.509002975        12.710040540
       221          221.000000         3.861892662       301.443034392     -1268.550843583     -1264.499992846        12.723730937
       222          222.000000         3.767866629       294.103759306     -1268.396076023     -1264.437148770        12.736908410
       223          223.000000         3.839563483       299.700112944     -1268.480933934     -1264.448225989        12.699251289
       224          224.000000         3.835454591       299.379390209     -1268.464635524     -1264.433939500        12.707093649
       225          225.000000         3.814444666       297.739444164     -1268.441327018     -1264.429556596        12.746510645
       226          226.000000         3.829943983       298.949255361     -1268.473552124     -1264.444209243        12.755697850
       227          227.000000         3.798259249       296.476078878     -1268.444918130     -1264.445200871        12.716266727