    2699
 i =        0, time =        0.000, E =     -1262.2551547751
  C        12.3231295000       14.5332080000       11.9710280000
  O        12.0187265000       13.3585770000       11.6272070000
  O        13.4341315000       15.0309640000       12.1164480000
  N        11.3339135000       15.4711160000       12.3658050000
  H        10.5266065000       10.8154580000        4.0005020000
  H        10.3232065000       15.3906610000       12.4225010000
  H        11.5357155000       16.4681800000       12.2583950000
  N        13.6069565000       17.3324910000       10.3901520000
  H        13.5669225000       16.4824390000       10.9393450000
  H        13.8384405000       17.1354110000        9.3540800000
  H        12.7570585000       17.8417690000       10.5386810000
  O        30.4761965000       15.3836550000       13.4874210000
  H        30.4552195000       14.5493560000       13.9708020000
  H        31.1383725000       15.9071410000       13.9419270000
  O        -3.0213415000       15.5862560000        7.4194890000
  H        -2.5352985000       14.7479980000        7.4567020000
  H        -3.7774835000       15.4044520000        7.9959190000
  O         1.9436375000        8.4906610000       -9.2201420000
  H         1.9484605000        9.0130550000      -10.0415640000
  H         1.0959555000        8.7916690000       -8.8279690000
  O        27.9853245000       28.5832540000        0.1735760000
  H        28.8695545000       28.8827990000        0.4348140000
  H        27.5513745000       28.4846860000        1.0566810000
  O        25.9871905000       10.8081850000       10.1071200000
  H        26.1815055000        9.8568100000       10.2885490000
  H        26.8960325000       11.1499530000        9.9752170000
  O        30.8585295000       -8.4005640000        2.4094310000
  H        30.2835745000       -9.0706120000        1.9847120000
  H        31.6399235000       -8.9821790000        2.5435160000
  O         0.2856445000       20.1005460000       -7.1242490000
  H        -0.2241055000       19.6193530000       -6.4210470000
  H        -0.1392165000       21.0016010000       -6.9876680000
  O         7.0300795000        5.5555340000       13.7765730000
  H         6.6053955000        4.9173950000       14.3880820000
  H         6.3966315000        6.2834430000       13.7843830000
  O        27.4422335000       10.3266830000        2.8366320000
  H        27.4026925000        9.7875750000        2.0109300000
  H        27.1529485000        9.6847110000        3.4963140000
  O        17.7627905000       24.5885550000       -4.4297860000
  H        18.4982125000       23.9623910000       -4.6333830000
  H        17.1763555000       24.4567720000       -5.1984810000
  O         3.5140965000       11.2270380000        3.2000750000
  H         4.2066385000       11.7132520000        2.7847190000
  H         3.8099785000       10.2916010000        3.0985310000
  O         8.2484065000       17.2078290000      -14.4113520000
  H         7.8924245000       17.4061890000      -15.2750580000
  H         7.4820385000       17.3484820000      -13.8233670000
  O        22.4443415000        2.9536170000        4.5735740000
  H        22.2253165000        2.2925440000        5.2633000000
  H        22.9162385000        2.3130830000        3.9483020000
  O         4.5909775000        3.4766250000       -5.8248990000
  H         5.0006045000        2.8207990000       -6.4249070000
  H         4.3860745000        2.9357930000       -5.0478070000
  O        24.5841235000        0.5490470000       -7.2771470000
  H        24.4974845000        0.1801350000       -6.3663730000
  H        23.8359335000        0.1111300000       -7.7259260000
  O        12.6558575000        4.0059690000      -11.0892890000
  H        12.0831375000        3.3809830000      -11.6018470000
  H        11.9759285000        4.6508390000      -10.8068450000
  O         0.9397695000       11.1826480000        1.5063980000
  H         0.7786395000       11.8011930000        0.7607070000
  H         0.0643975000       11.2464710000        1.9447610000
  O        24.2222955000       -0.8290980000       -5.1233740000
  H        25.0832275000       -0.6879420000       -4.6822560000
  H        23.6459805000       -1.0952560000       -4.3988330000
  O        10.1358305000       32.3843160000       -8.7023800000
  H        10.8227645000       32.9975130000       -8.3654820000
  H        10.7199095000       31.6964740000       -9.0953900000
  O        17.4833505000       18.4371450000      -14.3699010000
  H        17.7126295000       18.9202540000      -13.5423060000
  H        16.9455665000       19.0477490000      -14.8464440000
  O        14.0985085000       17.8924050000      -12.2920490000
  H        14.1237335000       18.3333880000      -11.4235820000
  H        13.2514395000       18.1794230000      -12.6351170000
  O        17.5757675000       31.5334910000      -11.4129830000
  H        18.0775525000       32.0634350000      -10.7336680000
  H        16.7347205000       31.3947780000      -10.9458560000
  O        24.0259815000       10.0917990000        0.7473650000
  H        23.2386745000        9.5405210000        0.9721390000
  H        24.6911415000        9.3715980000        0.6398070000
  O        20.1214105000        3.0260110000       -8.3117770000
  H        19.3968355000        2.9926190000       -7.6464670000
  H        20.7837145000        3.5499030000       -7.7973480000
  O        -6.9990225000       -0.2486550000      -11.5372810000
  H        -6.8429425000        0.1468880000      -12.4428280000
  H        -7.9799375000       -0.1526200000      -11.5142030000
  O        20.9232805000       11.6888330000       -2.6801350000
  H        20.8144325000       10.7450880000       -2.9275190000
  H        20.6808435000       12.1237690000       -3.5463630000
  O        18.0353185000        8.1576290000        3.5916230000
  H        18.6975535000        7.5526520000        3.1289160000
  H        17.7298775000        7.4740950000        4.2745960000
  O         1.4505445000       32.2751620000        4.3455750000
  H         2.2153555000       31.7032550000        4.0600650000
  H         0.8456215000       31.5506750000        4.6367670000
  O        21.2914695000        6.5577470000      -11.3862140000
  H        20.5685595000        5.9723510000      -11.0009280000
  H        20.7028365000        7.2482110000      -11.7836340000
  O        21.3486885000       -8.5280310000        2.4147960000
  H        21.9613415000       -7.8977880000        1.9770140000
  H        21.9149555000       -9.3216660000        2.4280900000
  O        22.4476565000       -6.2173330000        1.1866840000
  H        23.4597115000       -6.1421890000        1.1995520000
  H        22.3689155000       -5.9409740000        0.2362340000
  O         3.0473805000        5.9781680000       -9.2663150000
  H         2.5909385000        5.5527380000       -8.4923710000
  H         2.6556535000        6.8786340000       -9.1569390000
  O        25.0260545000      -13.8021730000        6.0840130000
  H        24.3207535000      -14.4283690000        6.3890990000
  H        25.1580355000       17.8086890000        5.1834560000
  O         7.9396805000       -3.2650370000       12.9096200000
  H         7.3899545000       -3.0306840000       13.7035150000
  H         7.8385735000       -4.2360660000       12.9317760000
  O        13.9748325000        1.1783400000       -0.9061270000
  H        13.6708125000        0.5708140000       -0.1952220000
  H        13.5461945000        0.7583160000       -1.6719460000
  O        13.3994145000       -1.1253620000       -7.2704790000
  H        13.6084975000       -0.2492250000       -6.9627430000
  H        13.4680905000       -1.6740260000       -6.4946240000
  O        33.8834875000       27.9148180000       11.3964400000
  H        33.9038235000       27.0989190000       11.8777130000
  H        34.3646205000       27.7548660000       10.5954270000
  O        23.6106605000       30.8413070000       12.9959870000
  H        24.0347005000       30.3071370000       12.3004170000
  H        22.6504385000       30.6794320000       12.6923520000
  O        22.3504595000        2.9688040000       -0.3158770000
  H        21.4693485000        2.7832460000        0.0577820000
  H        22.3521515000        2.3767390000       -1.1078040000
  O         6.0039125000        3.3828810000      -11.8695810000
  H         6.1012835000        4.2608890000      -12.2252910000
  H         5.7675025000        3.5490600000      -10.9370990000
  O        11.5765205000        4.4518540000        3.4846770000
  H        10.6386225000        4.2285220000        3.7139590000
  H        11.8749255000        4.7169670000        4.3859860000
  O        17.4521595000       -4.5779050000       -3.2081020000
  H        16.9609485000       -5.3518430000       -2.8246580000
  H        18.2691175000       -5.0141690000       -3.4928790000
  O         7.0435725000        0.6604720000      -11.3894100000
  H         6.3741935000       -0.0327110000      -11.5122030000
  H         6.5649385000        1.4230520000      -11.8050540000
  O        27.0041065000        5.3812250000       -0.5451320000
  H        26.9760495000        4.5063270000       -0.9757040000
  H        26.0470985000        5.4804480000       -0.3202930000
  O         2.8961155000       19.8100130000        6.2196920000
  H         3.1315215000       20.6174700000        5.7015880000
  H         3.7059795000       19.4883880000        6.6128010000
  O         6.4173985000       12.8251800000       -8.7225860000
  H         6.8568305000       13.4638730000       -9.3378710000
  H         6.0044365000       12.2218140000       -9.3836210000
  O         9.2898165000       13.1600450000       -8.7916100000
  H         9.7854075000       12.4598520000       -8.3165370000
  H         8.8733105000       12.6264800000       -9.4984340000
  O        36.3131485000       -2.7484480000       12.9673490000
  H        36.1166075000       -1.8127600000       13.1591370000
  H        35.5606045000       -2.9542400000       12.3680590000
  O        21.8848785000       12.7162100000        7.2737640000
  H        21.6683865000       12.2278640000        6.4578000000
  H        22.6145665000       12.1824810000        7.6223510000
  O        13.5727485000       -3.3312750000       -5.1712780000
  H        13.6621745000       -4.2856310000       -4.9302350000
  H        14.2561015000       -2.9579600000       -4.5764860000
  O        19.3870865000       17.0844840000       -0.0577240000
  H        18.4685685000       16.8043770000       -0.0370500000
  H        19.8674925000       16.3025530000        0.2373490000
  O         5.1380405000       10.9810190000       10.9071330000
  H         4.8457625000       11.8650730000       11.1023810000
  H         6.1638395000       10.9356790000       11.1148960000
  O         8.1339535000       20.2343220000        5.8598520000
  H         8.7644485000       19.9289290000        5.1208010000
  H         7.4931745000       20.6565210000        5.2737080000
  O         5.7708595000       21.4917760000       -9.2243280000
  H         5.8350045000       22.0581710000       -8.4542440000
  H         5.7792205000       20.6021880000       -8.8370150000
  O         8.9093695000        2.4098860000      -10.4095780000
  H         8.2711605000        1.8414000000      -10.8905470000
  H         9.3105855000        1.7555610000       -9.8129900000
  O        15.2680045000       20.1164760000        3.5245650000
  H        14.4561465000       20.6897990000        3.5234410000
  H        15.9483585000       20.8298490000        3.4067570000
  O         2.7646665000       -1.7676250000        5.8109910000
  H         3.6161235000       -1.4803350000        5.5297830000
  H         2.6525455000       -1.5087670000        6.7161430000
  O        19.6136075000        0.3086790000      -13.3703990000
  H        19.6480215000       -0.1522790000      -14.2076420000
  H        18.9443895000       -0.2267690000      -12.8919940000
  O        28.1688495000       19.8552080000      -12.9933300000
  H        28.9667855000       20.4128780000      -12.9403540000
  H        28.5752925000       18.9623050000      -12.9996110000
  O         4.6582055000        1.0390080000        1.9862320000
  H         4.1655075000       32.2814410000        2.3986210000
  H         5.4988065000        0.6262000000        1.7769380000
  O         1.7245495000       19.7709730000       -4.6191750000
  H         1.5184515000       19.7721120000       -5.5726510000
  H         1.4983555000       18.8448180000       -4.3770090000
  O        30.5973565000       17.7644940000       11.7062590000
  H        30.0179095000       17.2082520000       11.1773800000
  H        30.9242095000       17.1388650000       12.3701230000
  O        11.2109495000        7.4785230000        0.9572500000
  H        11.7641275000        8.0882200000        1.4972200000
  H        11.6905185000        6.6152570000        1.1819980000
  O        30.7321095000       12.7797170000       10.8826950000
  H        31.6476915000       12.7627810000       11.2279710000
  H        30.2449955000       12.2480930000       11.5061240000
  O        11.8565325000       -5.7823480000        5.8292310000
  H        12.4686645000       -5.6355580000        5.0827850000
  H        11.1099115000       -6.1818760000        5.3431280000
  O        17.8750395000       21.1110120000        4.7402280000
  H        18.0870585000       21.2148690000        5.6987340000
  H        18.2515735000       20.2087390000        4.5977110000
  O        30.1238075000       23.9979860000       -3.4004460000
  H        31.0192695000       23.9942080000       -3.8088210000
  H        30.0250285000       23.0573260000       -3.1828700000
  O        17.4221005000       12.2486370000       -5.4852180000
  H        17.8234765000       12.9933020000       -4.9959480000
  H        17.6737045000       11.5051560000       -4.8669610000
  O        15.5455845000        0.3637070000       12.2544910000
  H        14.6676205000        0.6892490000       12.0309140000
  H        16.0914285000        1.0530690000       11.7776380000
  O         2.8043425000       30.9571520000       17.0343130000
  H         2.8991885000       29.9806600000       16.9357100000
  H         2.4769775000       30.9906560000       17.9505380000
  O         2.8061555000       -1.9259290000       -4.6493920000
  H         2.9902525000       -1.8143560000       -3.7114330000
  H         2.3757885000       -2.8076430000       -4.6845230000
  O        10.2118925000       11.6022700000      -13.0690280000
  H        10.8771465000       11.5566450000      -12.3194020000
  H        10.7148855000       11.0900470000      -13.7359150000
  O         2.1708265000       -4.5782900000       -3.9270850000
  H         2.5740495000       -5.1962440000       -3.2704040000
  H         1.3086125000       -5.0090750000       -4.0626910000
  O        28.0745355000       10.2506820000      -11.4397070000
  H        28.2591385000       10.8734220000      -12.2017400000
  H        27.1072365000       10.1370970000      -11.6148140000
  O        22.2017805000       15.2787290000       10.8819680000
  H        22.3829615000       15.4617910000        9.9181220000
  H        22.5818935000       16.0270010000       11.3766440000
  O        14.9869275000        9.3069420000       -0.7505020000
  H        14.9573815000        9.2795090000        0.2359250000
  H        15.9105355000        9.0603900000       -0.8843200000
  O         8.5543485000       15.8794900000       -9.2229940000
  H         9.1362665000       15.1467110000       -8.8165130000
  H         7.9244045000       15.1964780000       -9.6430920000
  O        19.1784625000       -0.2233430000       -6.7489900000
  H        19.8503135000        0.0767330000       -6.0725470000
  H        18.4120315000       -0.3242790000       -6.1261400000
  O        24.6989875000        1.6738060000      -13.6334630000
  H        24.2278495000        2.3239360000      -13.0515020000
  H        25.4254375000        2.2890870000      -13.9268990000
  O        11.7029855000       19.9856490000        1.8410600000
  H        10.7763855000       20.1741140000        2.1005990000
  H        11.5672075000       19.4478150000        1.0356860000
  O        26.2746145000        1.2718430000       -9.6931920000
  H        25.7789515000        1.0658200000       -8.8563390000
  H        25.7773835000        0.7172300000      -10.3386390000
  O        14.0255135000       18.5741980000       -9.6267060000
  H        13.3105125000       18.3274650000       -9.0234820000
  H        13.9369545000       19.5465400000       -9.6537270000
  O         8.4288405000        9.1098870000        5.8370710000
  H         7.9626585000        8.3078560000        5.3992330000
  H         9.1345475000        9.3441710000        5.2198800000
  O        19.0124355000       19.1506500000       12.1024470000
  H        18.7777465000       20.1796100000       12.1166960000
  H        18.9807605000       18.9969640000       12.9797180000
  O        10.9472155000        2.3186030000        6.0171370000
  H        11.6087885000        1.6558490000        5.6940740000
  H        11.1528585000        2.2955020000        6.9685890000
  O        23.1558305000       15.8431550000        8.3627290000
  H        22.9853765000       15.2696450000        7.6127480000
  H        22.9651275000       16.7260520000        7.9901290000
  O        30.2268635000       17.0593650000        2.0200370000
  H        30.0162735000       17.0787930000        2.9908170000
  H        31.0062025000       16.4618910000        2.0269250000
  O        10.9171005000        6.2017230000       -1.3178260000
  H        11.5370275000        5.5012660000       -1.0177110000
  H        10.7644005000        6.6510000000       -0.4385010000
  O        -3.5923965000      -19.7815030000        9.7070610000
  H        -2.9826355000      -19.8087500000        8.9457850000
  H        -3.0219575000      -19.2769730000       10.3453720000
  O        -1.0429975000        2.3915730000        3.9539660000
  H        -1.3344285000        1.4480420000        4.0995660000
  H        -1.4216685000        2.7450960000        4.8169270000
  O        10.1692995000       -1.8951370000        3.4296590000
  H        10.3185115000       -2.8439170000        3.5714880000
  H         9.2644855000       -1.7873100000        3.7626610000
  O        21.1528335000       18.4229220000       10.1134980000
  H        21.1165995000       19.4137230000        9.9586220000
  H        20.7323455000       18.3815200000       10.9747420000
  O        24.0073625000       23.9903190000       -8.6965200000
  H        24.2047905000       24.5074620000       -9.5224850000
  H        24.4704795000       23.1780910000       -8.8993240000
  O        11.4526855000        6.7223670000      -10.6955010000
  H        12.0990645000        7.1881300000      -11.2899820000
  H        10.8883995000        7.4863040000      -10.4259760000
  O        22.3158055000       27.3929600000        4.7828450000
  H        21.6520405000       -5.0706430000        4.2128720000
  H        22.7037735000       27.9989930000        4.1185710000
  O        11.6904965000       14.8867230000       -8.9947670000
  H        11.3406735000       13.9823890000       -8.8489780000
  H        12.3882095000       14.8805540000       -8.2952280000
  O        12.3979635000        5.3369140000        6.9440380000
  H        12.4244215000        6.2058380000        6.6465420000
  H        12.4305295000        5.3671160000        7.8895690000
  O        27.0201225000      -11.6784460000        4.8969930000
  H        26.7096385000      -12.2435960000        5.6485350000
  H        26.6554525000       19.7999250000        4.1565670000
  O         5.1603945000       13.5790890000        2.9205850000
  H         5.9105185000       14.0984520000        3.2481290000
  H         4.5229835000       13.7711140000        3.6708940000
  O         5.0525305000        1.1039810000       -1.0370910000
  H         4.5623475000        1.5914970000       -0.3398090000
  H         5.7924905000        0.7438830000       -0.4836550000
  O         5.9503155000       18.3491460000        6.5219160000
  H         6.4994005000       17.5532000000        6.6235780000
  H         6.6509465000       19.0414930000        6.3714130000
  O        21.2511175000        8.8801460000       -9.7571320000
  H        20.3845845000        8.9386130000      -10.1997050000
  H        21.6898845000        8.2177030000      -10.3419580000
  O         1.7149325000       13.5653230000       -8.2296350000
  H         1.6643435000       14.2671380000       -7.5626710000
  H         1.2743655000       12.8408120000       -7.7632090000
  O        29.8696345000        8.3540580000        9.4785840000
  H        28.9403325000        8.4949550000        9.7629650000
  H        29.7170505000        7.5011110000        8.9666660000
  O         4.0601735000        5.0447820000       -3.1407330000
  H         3.0616715000        4.9514460000       -3.2547260000
  H         4.3054745000        4.1446890000       -3.4897210000
  O        19.4263245000        3.6667150000       10.8263380000
  H        19.2621995000        3.2836270000       11.7284360000
  H        18.9336545000        2.9887730000       10.2956840000
  O         6.7786985000       21.0697310000        3.3609170000
  H         5.9377925000       20.6476400000        3.0107940000
  H         6.5456155000       22.0120130000        3.2473340000
  O         8.6872345000       22.0979220000       11.4503670000
  H         7.9055295000       21.5174470000       11.5836170000
  H         8.8393865000       22.3913480000       12.3657740000
  O        16.2617055000        9.3988940000       -6.6106910000
  H        16.5449565000        8.8384740000       -7.3784420000
  H        15.2844165000        9.1735110000       -6.6712940000
  O         8.5721525000       30.2678590000       -1.4508430000
  H         8.2838535000       -1.6610040000       -2.3528090000
  H         8.3381865000       -2.6576990000       -1.2115030000
  O        -0.6998455000       24.4887430000      -13.2876970000
  H        -0.9706465000       25.3675560000      -13.6060430000
  H         0.2350585000       24.4532240000      -13.6019130000
  O         0.5470385000       -1.7624970000        0.8573960000
  H         1.5327915000       -1.8403270000        0.7016010000
  H         0.4576875000       -2.5044340000        1.5051710000
  O        12.5914095000       10.0374900000      -14.1439920000
  H        13.2517075000        9.9003260000      -13.4385560000
  H        13.0618155000        9.6676280000      -14.8979550000
  O        20.0679055000        2.9184740000        1.0284920000
  H        20.1455825000        2.2625010000        1.7550630000
  H        19.2301555000        2.6209820000        0.6228870000
  O        13.9464405000        7.3954760000       -2.3818210000
  H        14.7747355000        6.8244990000       -2.3816380000
  H        14.3022195000        8.1430340000       -1.8168830000
  O         7.5068055000       10.2101320000        9.2240000000
  H         6.8299425000       10.6299360000        8.7696020000
  H         8.0623875000        9.6396320000        8.5821990000
  O        32.5258215000      -11.1099800000        3.1252790000
  H        31.6788115000       20.4268630000        3.2980020000
  H        32.6818165000      -11.3047770000        2.1935720000
  O         7.0405225000        2.9285100000        0.2807320000
  H         7.1410405000        2.5076890000       -0.5852260000
  H         7.9366275000        2.7683780000        0.6632820000
  O        27.1486895000       22.9369410000       -2.1215280000
  H        26.5977435000       22.8529720000       -2.9271940000
  H        27.7575395000       22.1940750000       -2.2198390000
  O         6.9947915000       -3.9930980000        5.0541940000
  H         6.2322395000       -4.0631510000        5.6833580000
  H         6.5707725000       -4.3694090000        4.2636510000
  O         8.8921285000        5.4149730000        3.6619320000
  H         8.6957005000        4.5443700000        4.0612450000
  H         8.0502935000        5.6980620000        3.3170710000
  O        29.9535425000       -0.1691890000        4.3333490000
  H        29.5086895000       -0.8612930000        4.8756880000
  H        29.2794625000        0.5376040000        4.4187540000
  O        21.3620165000       10.5697620000        5.2417140000
  H        21.1556565000        9.6142580000        5.4423860000
  H        22.1625175000       10.4124950000        4.6703410000
  O         9.1372775000       -1.3565650000       -4.2793160000
  H         9.8487615000       -2.0099950000       -4.3916980000
  H         9.2355075000       -0.8807800000       -5.1401700000
  O        15.0830815000       19.8125820000        8.2783510000
  H        14.2394945000       20.3012810000        8.3925000000
  H        15.6799205000       20.5740440000        7.9206750000
  O         8.1302485000       27.9979750000       -8.5781480000
  H         8.0598085000       27.9739590000       -7.5689440000
  H         9.1072415000       27.9368770000       -8.6385900000
  O        26.1200575000       25.8232820000      -10.2141380000
  H        25.6258605000       26.5688960000       -9.7529660000
  H        -5.2675585000       25.5953390000       -9.4801200000
  O        -0.4805065000       26.8208540000       -4.9509950000
  H        -1.2505335000       26.9537640000       -5.5492310000
  H        -0.6396025000       25.8962080000       -4.7146380000
  O        -4.6602215000        0.5794590000        4.2963470000
  H        -4.8898835000       -0.2004550000        4.8477520000
  H        -4.8954975000        0.2529870000        3.3981960000
  O        10.3398225000       -6.3741220000        0.3021850000
  H        10.7872475000       -6.9427330000       -0.4128830000
  H        10.2074195000       -7.1543230000        0.9216870000
  O        16.2927055000       23.7078000000       -6.4064870000
  H        16.1120925000       23.7917670000       -7.3685430000
  H        15.9869095000       22.7737730000       -6.2808170000
  O        11.8878735000        9.0579530000       11.6067950000
  H        12.5059745000        8.8939920000       12.3194200000
  H        12.3240775000        9.5100010000       10.7785070000
  O        31.8708455000       -0.9182850000       11.2721490000
  H        32.3323705000       -1.6511180000       10.7645120000
  H        32.6086695000       -0.2488190000       11.2016010000
  O         8.1716565000       22.5227490000        7.3654930000
  H         8.1742865000       21.6031690000        6.9461100000
  H         7.3016305000       22.4693820000        7.7929160000
  O        21.8523385000       -1.0499120000      -11.5101060000
  H        21.1513305000       -1.7492650000      -11.4184490000
  H        21.5282075000       -0.6377620000      -12.3489890000
  O        -3.4231475000       12.3387950000       -6.1290980000
  H        -3.2884745000       11.6095210000       -6.7300160000
  H        -3.0319805000       12.0274210000       -5.2945800000
  O        16.1613425000       15.5510740000       -4.8726480000
  H        16.6947345000       16.2877350000       -5.2772590000
  H        16.0980165000       15.0031870000       -5.7172030000
  O        19.1982475000        3.0525830000      -12.6468540000
  H        19.3787765000        2.1524930000      -13.0119420000
  H        19.8456915000        2.9795600000      -11.8768910000
  O        25.2429925000       -3.6669910000       -4.7371200000
  H        26.2128635000       -3.6219730000       -4.4319020000
  H        24.8544655000       -4.0748290000       -3.9520150000
  O        16.8780515000        8.7874380000        7.2835050000
  H        15.9707905000        9.1440740000        7.0292080000
  H        17.1177615000        9.5017110000        7.8342420000
  O        21.0743655000       22.9439150000       -8.3878600000
  H        21.4110905000       22.0449350000       -8.2342140000
  H        21.7817405000       23.3181520000       -8.9659040000
  O        19.8618545000       19.2959060000       -8.7132310000
  H        18.9047695000       19.1534710000       -8.7757800000
  H        20.0540105000       19.6853110000       -9.5972590000
  O        12.6822035000        7.5691880000        4.5357160000
  H        11.7677495000        7.2456570000        4.3471090000
  H        13.3941305000        6.9110390000        4.1461050000
  O        27.7643665000       17.9720230000        6.7933110000
  H        26.8007255000       18.0542740000        6.9237180000
  H        27.8636705000       17.0070650000        6.8167490000
  O         4.5431355000       -2.0722800000      -10.0386480000
  H         4.5257585000       -1.4062370000      -10.7432040000
  H         3.7237155000       -2.5791590000      -10.2168870000
  O         1.2676355000       17.7579790000       -1.8048930000
  H         1.9005455000       17.4801160000       -2.5032530000
  H         0.7527795000       16.9381910000       -1.6879260000
  O        13.1476505000        2.6580050000        2.3688480000
  H        12.5939585000        3.3403180000        2.8312570000
  H        12.4471415000        2.0178630000        2.1169170000
  O         6.8538475000       14.8516020000       -3.3789080000
  H         6.2381405000       14.5850530000       -4.1101880000
  H         7.6065665000       14.2280280000       -3.5815710000
  O        20.0136455000       20.3661350000        7.8261250000
  H        20.9218105000       20.0276430000        7.8334090000
  H        19.6093735000       19.7778740000        7.1638200000
  O         9.6021025000        8.5799310000       -9.5522340000
  H         9.2329435000        9.3749900000       -9.9749060000