    2698
 i =        0, time =        0.000, E =     -1336.9952343803
  C         9.2803610000        9.6716230000       10.3079560000
  O        10.1660320000        8.5784570000        9.9675130000
  O         9.1005220000       10.7421680000        9.6217780000
  N         8.9278330000        9.5454550000       11.4686900000
  H         8.3000400000       10.1660320000       11.9250900000
  H         8.0739410000        8.0686320000        9.6865150000
  H         8.6827560000        8.6115280000       11.9159400000
  O        30.4024140000       15.2997380000       -1.2562850000
  H        30.0784400000       15.9922570000       -0.6967760000
  H        29.5495850000       14.9856070000       -1.6617840000
  O         1.4804410000       16.7813590000        2.1725640000
  H         0.5138670000       16.8266960000        2.2143870000
  H         1.6875610000       17.5775320000        2.7804880000
  O         1.4856460000        8.5140140000       -5.6744950000
  H         1.1733420000        7.6032180000       -5.8232260000
  H         1.0082680000        8.6978950000       -4.8080220000
  O        29.7404920000       27.4645940000       -5.4581750000
  H        29.0809650000       27.6848830000       -4.7293880000
  H        30.5534040000       27.7826370000       -4.9824660000
  O        24.7952040000       16.1276840000       11.1618410000
  H        23.8315660000       16.0249610000       11.1731990000
  H        25.0344830000       16.6846050000       11.9050410000
  O        13.5002740000       -0.8314660000        7.3363100000
  H        12.7729230000       -0.3010030000        7.0217950000
  H        13.4437130000       -1.6345250000        6.7971030000
  O        -4.4723330000       23.8541870000       -3.9957790000
  H        -4.0798290000       24.1322980000       -4.8774390000
  H        -5.1680430000       23.2395730000       -4.3105960000
  O        -6.6558040000       10.1033130000       -0.3295960000
  H        -7.1767830000        9.2968420000       -0.1547220000
  H        -7.3239250000       10.8044650000       -0.2302910000
  O        28.1896880000        1.6630290000        0.0092520000
  H        27.5016460000        2.3451010000        0.2007260000
  H        27.6535090000        0.8571760000       -0.0428330000
  O        20.3751370000       23.2715570000       -6.7259630000
  H        20.6018620000       23.1715350000       -5.7659870000
  H        21.0283870000       23.9520360000       -6.9886080000
  O         0.7693510000       10.6877270000        5.6474410000
  H        -0.1163800000       10.7017970000        5.1584130000
  H         0.6432460000       11.5420110000        6.1374970000
  O         1.9172210000       21.0877150000      -12.3851410000
  H         2.3153910000       21.3585110000      -13.2120250000
  H         2.1094750000       21.8237500000      -11.7497280000
  O        25.9151760000       12.1932280000       -2.6621000000
  H        26.6992570000       12.7042300000       -3.1099500000
  H        26.3598590000       11.9098250000       -1.8581940000
  O         0.0524230000        2.8120240000       -8.7341980000
  H        -0.6499170000        2.3594190000       -8.2388720000
  H         0.6580290000        2.0832560000       -8.9018200000
  O        21.8270050000        2.1450380000       -6.3443040000
  H        20.9665950000        2.0208680000       -6.7702130000
  H        21.7645110000        3.0925300000       -6.0446880000
  O        11.1811710000        0.3067800000       -9.2197110000
  H        10.7224450000        1.0655770000       -8.8484160000
  H        12.0831450000        0.6343310000       -9.3464720000
  O         1.3842830000       20.2516750000        1.0822410000
  H         0.7063280000       20.8842700000        1.4060030000
  H         1.6700420000       19.8706210000        1.9354610000
  O        23.6737020000        3.6854480000       -3.7421220000
  H        22.9878850000        4.0234570000       -4.3568400000
  H        24.2825950000        4.4767240000       -3.7458470000
  O        19.5658040000       21.2227780000       -8.5069300000
  H        19.2671990000       21.9401130000       -9.0964480000
  H        20.2019520000       21.7290150000       -7.9579830000
  O        19.5381180000       14.0139380000      -12.3165210000
  H        20.3930950000       14.3917440000      -12.0673420000
  H        19.0315690000       14.1942370000      -11.5095420000
  O        17.7958070000       17.9685750000      -13.0321610000
  H        17.7349380000       18.9431060000      -12.9696380000
  H        17.1723250000       17.6836550000      -12.3589410000
  O        17.5161190000       27.7333600000      -11.8564350000
  H        18.1569160000       28.3906880000      -11.4965110000
  H        17.1588440000       28.2807080000      -12.6148340000
  O        19.6864200000        5.4656100000       -7.8908680000
  H        20.6262890000        5.4270260000       -7.6556590000
  H        19.6150190000        6.3656020000       -8.2708920000
  O        24.8064460000        6.1466870000       -4.2371690000
  H        24.4290790000        6.6383750000       -3.4896660000
  H        25.1597250000        6.8527320000       -4.7872500000
  O        -1.7877920000        7.7740920000       -7.7176680000
  H        -2.3648930000        7.3086890000       -8.3077580000
  H        -0.9298580000        7.6172110000       -8.1519130000
  O        24.3232840000        7.4731430000       -2.0074470000
  H        25.2025300000        7.3168240000       -1.5503220000
  H        23.7109760000        7.2489150000       -1.2191400000
  O        17.3585870000        8.9245170000        2.4943590000
  H        16.5241570000        9.0999080000        2.0719700000
  H        17.2180180000        8.0824040000        2.9592910000
  O         0.4166650000       23.2154390000        4.6834570000
  H         0.1466630000       22.5110720000        5.3512230000
  H         1.3367980000       23.3532520000        5.0501740000
  O        26.5869390000        3.4025680000      -13.2930050000
  H        27.0249730000        2.5557760000      -13.4284520000
  H        26.0814110000        3.5261670000      -14.1435000000
  O        11.9295430000        1.6874470000        3.1578650000
  H        11.6586540000        2.0719460000        4.0738290000
  H        11.2841570000        0.9623600000        3.1744680000
  O        22.3560160000        2.7492020000        0.7995330000
  H        23.0473400000        3.1141390000        0.1933610000
  H        21.6196580000        3.3963950000        0.6236950000
  O         4.4163710000       10.5307650000      -11.1178800000
  H         3.8900620000        9.9310800000      -11.6455640000
  H         4.6087030000       10.0176570000      -10.3201000000
  O        30.6749250000      -10.9965030000        8.6603910000
  H        29.8045460000      -11.3952800000        8.8760320000
  H        31.1804010000       20.7844960000        9.4171530000
  O         8.1991300000        0.7470990000        3.9251020000
  H         8.9941370000        0.1863350000        3.5790180000
  H         8.1980250000        0.2693710000        4.8077750000
  O        12.3649040000        3.0665740000       -2.7002930000
  H        12.0747420000        3.9753420000       -2.5317470000
  H        11.5711790000        2.7377380000       -3.1870120000
  O        11.7943080000       -2.8045910000       -4.4499200000
  H        12.5195440000       -3.1974740000       -4.9449160000
  H        11.8987530000       -1.8390700000       -4.6433360000
  O        32.3367540000       28.0044880000        6.3027180000
  H        31.8351170000       27.5093960000        6.9905820000
  H        33.1930050000       28.0833780000        6.7384500000
  O        23.5153750000       16.7964710000       -3.5091780000
  H        22.8580890000       17.2014810000       -2.9284670000
  H        23.5881020000       15.8867420000       -3.0758760000
  O        19.4873430000        4.6672180000       -2.3344300000
  H        19.8773650000        5.4138460000       -2.8589970000
  H        18.6297740000        5.1086690000       -2.0863380000
  O         1.4618590000        5.0168890000      -11.8343940000
  H         1.5769820000        4.0885270000      -12.0799550000
  H         2.4120290000        5.3017600000      -11.8519770000
  O        11.6296820000        4.9251710000        2.8468280000
  H        12.2242110000        5.5061020000        2.3242900000
  H        10.9774370000        5.6067690000        3.1681940000
  O        14.0970630000        3.1361920000       -0.2144740000
  H        14.6817940000        2.6032880000       -0.7400020000
  H        14.3186990000        4.0483370000       -0.4829930000
  O         4.2541970000        4.7555920000      -12.3843270000
  H         4.7736370000        3.9435120000      -12.4548010000
  H         4.8373670000        5.4131010000      -12.8287290000
  O        25.1712880000       10.1800480000        3.6071680000
  H        25.9660170000        9.6580050000        3.7932640000
  H        24.8223090000        9.7337710000        2.8335520000
  O        16.1359480000       14.7270450000        1.8290550000
  H        15.4104940000       15.0754500000        1.2831710000
  H        15.7089540000       13.9029680000        2.1411910000
  O         1.7977050000       11.1736160000       -6.0815600000
  H         1.8203440000       10.1926340000       -5.8610280000
  H         0.8684880000       11.1900270000       -6.4860980000
  O         8.7411970000       16.0969520000      -11.2103040000
  H         7.7849370000       16.0807420000      -11.3138070000
  H         9.0406280000       15.8641140000      -12.1108170000
  O        25.2994140000        0.8303780000        2.8090750000
  H        25.2518770000        0.3064830000        1.9795900000
  H        26.0678840000        0.4405790000        3.2304410000
  O        20.4949190000        8.3859480000        9.9865980000
  H        21.0160470000        9.1100440000       10.3937590000
  H        20.9947490000        7.5929980000       10.2887780000
  O         9.6315330000       -7.1885130000       -8.1951310000
  H         8.6973910000       -6.9418830000       -8.0289040000
  H        10.0669380000       -6.6634850000       -7.4997610000
  O        17.1868590000       11.9913430000       -1.6952200000
  H        16.4746340000       12.6660390000       -1.7392090000
  H        17.4563500000       12.1148400000       -0.7378210000
  O        15.2017670000        7.2384780000       10.0530320000
  H        16.0155940000        7.0825370000       10.6287690000
  H        14.5664520000        6.7323570000       10.5498010000
  O         5.8013100000       14.1491400000        2.6208020000
  H         5.0366990000       14.6502350000        2.3844740000
  H         5.9235420000       13.2350490000        1.9976090000
  O         9.4288960000       28.3127000000       -4.2217130000
  H        10.3933480000       28.5337200000       -4.4160430000
  H         9.5045530000       28.1158920000       -3.2696030000
  O         7.6631450000        3.5559290000      -10.5818570000
  H         7.6911050000        4.3913390000      -10.0158260000
  H         8.6165760000        3.3187250000      -10.5185380000
  O        13.9368620000       17.0676190000        4.5742800000
  H        14.3119450000       16.2003540000        4.9754750000
  H        14.2123140000       17.0411220000        3.6007490000
  O         2.7900760000        0.5463120000        8.8147150000
  H         3.6280690000        0.0213710000        8.8763490000
  H         2.2480600000       -0.1421760000        8.2986840000
  O        17.5195260000        2.0932470000       -9.5978580000
  H        17.2752150000        3.0483120000       -9.5538860000
  H        17.7689190000        2.0088820000      -10.5369720000
  O        29.9383740000       22.9204060000      -11.5046170000
  H        30.2220060000       23.8524760000      -11.4833440000
  H        29.1724830000       22.9540270000      -10.8686800000
  O        11.0679860000       -6.5768710000        3.4414270000
  H        11.3298200000       26.3064120000        3.0700730000
  H        11.8365760000       -7.0715090000        3.0823740000
  O         3.7870840000       17.3943770000        0.9163200000
  H         4.3434690000       17.7295990000        1.6336890000
  H         3.0349210000       16.9965840000        1.3915430000
  O        23.7945270000       17.2236040000        8.6195000000
  H        23.0794090000       17.3626630000        7.9522910000
  H        24.1800630000       16.4227960000        8.2689210000
  O        12.0257830000       10.6837220000       -0.7262270000
  H        12.4015790000        9.9009780000       -0.2733580000
  H        12.3303870000       11.4022240000       -0.1470340000
  O        29.8818090000        3.9645930000        7.3939930000
  H        30.1002860000        4.0683710000        8.3521580000
  H        30.1391870000        4.8038630000        6.9784240000
  O         4.4399630000       -5.3118250000        0.2844970000
  H         3.6670320000       -4.6831780000        0.2203090000
  H         4.7119220000       -5.3189420000       -0.6551670000
  O        22.7507400000       22.9107480000        7.9114010000
  H        23.3905790000       22.5515610000        8.6348650000
  H        23.4125610000       23.4346660000        7.4113860000
  O        27.8524250000       30.8949550000        2.7459000000
  H        28.3719710000       30.6007190000        2.0137610000
  H        28.4485210000       30.7775840000        3.4939520000
  O        21.4371190000       12.9717660000       -1.5252610000
  H        20.8123340000       13.7005370000       -1.6151730000
  H        22.2221700000       13.3400860000       -1.9953180000
  O        12.4439540000        0.4688670000       10.6571370000
  H        12.0915910000        0.8837640000        9.7904940000
  H        13.2518730000        1.0038290000       10.6813660000
  O        12.0344580000       15.8681520000       11.6722890000
  H        11.7424670000       16.3535460000       10.8740910000
  H        12.1037540000       14.9207890000       11.4211740000
  O         7.5253260000       -0.8635870000       -1.8373000000
  H         6.8396300000       -0.3248330000       -2.2508930000
  H         7.9588990000       -1.2466310000       -2.5816070000
  O        11.1631680000       11.9669120000      -11.9297030000
  H        11.9545040000       12.0985820000      -12.4944450000
  H        11.3717520000       11.0989830000      -11.5000220000
  O         5.2045960000        0.3132340000       -5.2777650000
  H         4.3741090000        0.2329970000       -4.7046760000
  H         5.7705100000        0.6160700000       -4.4913880000
  O        26.8646200000        9.0095630000      -10.3047530000
  H        26.5303610000        8.2957300000       -9.6979570000
  H        26.4449750000        9.7612630000       -9.8224500000
  O         5.0653510000        4.6263660000        5.0133490000
  H         5.4061160000        3.7288910000        5.2072990000
  H         4.1094430000        4.4282000000        4.8648250000
  O        11.9174410000       14.7449680000       -1.2873470000
  H        11.7253390000       14.4552240000       -2.1976300000
  H        12.4929670000       13.9987240000       -1.0012840000
  O         5.8923350000       15.4387480000      -11.3414130000
  H         5.0799700000       15.5710050000      -10.8450120000
  H         5.6905980000       14.5690840000      -11.7892750000
  O        21.6827450000       -1.7537060000       -1.2765710000
  H        20.9881480000       -1.3028070000       -1.7948630000
  H        21.3827270000       -1.5827910000       -0.3528980000
  O        20.3979700000        0.4550430000      -13.6570400000
  H        19.5134050000        0.1433850000      -14.0017090000
  H        20.5568030000       -0.2855340000      -12.9953150000
  O        12.9291390000       22.1828460000       -2.3730730000
  H        12.9384020000       22.2418370000       -3.3302910000
  H        12.1762230000       21.5445080000       -2.2169070000
  O        22.4376160000        5.1752760000      -11.0873590000
  H        23.4195270000        5.1163700000      -11.1968190000
  H        22.2644980000        5.9033130000      -11.7378710000
  O        10.7519240000       20.1802560000       -9.5039830000
  H        10.3503520000       21.0696700000       -9.3723490000
  H         9.9514890000       19.6853540000       -9.7959080000
  O        18.9563310000       22.9143430000       13.1837270000
  H        19.8107990000       22.5651300000       13.1890480000
  H        18.3234830000       22.2186950000       13.2366090000
  O        20.5691150000       23.6593380000        9.4316170000
  H        20.1681140000       22.8272170000        9.0279280000
  H        21.4175760000       23.7012210000        8.8023220000
  O        10.4417440000        3.1778760000        4.6592390000
  H        10.8516450000        3.9467090000        4.2063730000
  H         9.5800970000        3.2072770000        4.1939820000
  O        22.0330140000       17.1199230000        6.7017410000
  H        22.0504890000       18.0622840000        6.4252340000
  H        21.1922930000       16.8571800000        6.3112430000
  O        28.2902010000       22.9599080000        9.6746060000
  H        28.0427460000       22.4750650000        8.8865340000
  H        28.9388770000       23.5965210000        9.4237120000
  O         8.9776320000        3.1592860000       -0.2379490000
  H         9.9650360000        3.1721390000       -0.0971700000
  H         9.0025010000        2.9587150000       -1.2081960000
  O         1.9973500000        4.7239890000        7.7392010000
  H         2.6175070000        4.4637430000        7.0077150000
  H         1.7599210000        5.5758140000        7.4354320000
  O        -9.4897750000        6.9987180000        2.9901960000
  H       -10.1047190000        6.2967320000        2.6607880000
  H        -9.2900050000        6.6529260000        3.8648600000
  O        10.9470700000       -3.1097650000        4.9037460000
  H        11.3183820000       -3.4876220000        4.0728950000
  H        11.7826630000       -2.8851450000        5.3540280000
  O        18.6196480000       18.9907000000        9.3658780000
  H        17.6690100000       19.0786210000        9.5322250000
  H        18.7005080000       18.0506380000        9.0919690000
  O        16.7760300000       27.4731920000      -15.3224890000
  H        16.2654020000       26.6166360000      -15.2257310000
  H        16.8415970000       27.5254880000      -16.2732470000
  O        10.5159770000        3.5118340000       -6.9663770000
  H         9.9201370000        4.2769620000       -7.0711170000
  H        10.7988540000        3.3802450000       -7.8862850000
  O        19.2670560000       26.4126300000        8.4701780000
  H        18.4024350000       -5.1302950000        8.6010430000
  H        18.9587630000       25.5965600000        8.0410780000
  O        14.5985570000       24.9885220000       -5.0362590000
  H        14.9265820000       25.6114880000       -4.3284510000
  H        13.6172490000       25.2071320000       -4.9721140000
  O        13.4378510000       12.9114650000       10.0340390000
  H        14.3446460000       13.3432810000        9.8494390000
  H        13.1346780000       12.9007130000        9.0829380000
  O        17.6651250000       -7.3995690000        6.8200400000
  H        17.0511890000       -7.6057340000        7.5229820000
  H        18.0608350000       23.7390860000        6.5859140000
  O         6.0000850000       17.0358370000        9.9145020000
  H         5.7353990000       17.3601550000        9.0306100000
  H         6.5882750000       16.3585760000        9.4331980000
  O         6.7744620000       -1.8041770000        2.0216210000
  H         7.6851410000       -2.1355900000        1.9068270000
  H         6.8880610000       -1.3410510000        2.8615020000
  O        20.1238940000        9.2471040000        5.7442700000
  H        20.4174460000        8.3801910000        6.1168230000
  H        19.1993060000        9.2704750000        6.0264720000
  O        14.0064260000        8.1423630000       -9.6454940000
  H        14.4888390000        7.3793450000       -9.2802450000
  H        14.6213420000        8.8779130000       -9.5290500000
  O         2.1918870000        9.2427960000      -14.3203430000
  H         2.9449860000        8.7265690000      -14.6286150000
  H         1.5171130000        8.5468030000      -14.1984130000
  O        23.0648330000        9.2370270000        1.7172520000
  H        22.7949260000        8.3658430000        2.0625280000
  H        22.6972640000        9.7680510000        2.4720690000
  O         8.2856490000        2.7954720000       -2.8412240000
  H         7.9699610000        3.6779280000       -3.0764380000
  H         8.9707920000        2.6222180000       -3.4964100000
  O        28.4081940000        0.5255820000        7.1236600000
  H        27.5948330000        0.1161770000        7.5051040000
  H        27.9782090000        1.2883480000        6.6062930000
  O         3.6863370000       22.0047490000        1.1265610000
  H         2.8734000000       21.6196980000        0.7060620000
  H         3.7397400000       22.8293190000        0.5868510000
  O         9.0651620000       19.8665370000       13.2043150000
  H         9.0615340000       18.8311480000       13.4036900000
  H         8.8176680000       19.9237380000       12.2066320000
  O        16.5810620000       -2.2626090000       -5.0505190000
  H        16.8283480000       -3.1423930000       -5.3931870000
  H        17.0064620000       -2.3083460000       -4.1493840000
  O        12.3030410000       28.9499840000       -1.8229730000
  H        12.0674660000       -2.1557170000       -1.4933900000
  H        12.0788030000       -3.0316070000       -2.7762700000
  O         3.9474730000       18.7514420000      -12.9573170000
  H         3.5073560000       17.9010120000      -12.6802510000
  H         3.2627300000       19.3678380000      -12.5591440000
  O        -8.2378860000       -5.7140570000        4.8579590000
  H        -7.3469330000       -5.2891820000        4.8983350000
  H        -8.0291610000       -6.6250560000        4.6483960000
  O         7.5081090000        9.7821690000       -9.6652180000
  H         7.3538550000       10.2628040000      -10.5539260000
  H         6.9524320000        8.9869030000       -9.8787260000
  O        17.5564400000       -1.7123640000       -2.3434220000
  H        17.8063220000       -2.4407980000       -1.7329810000
  H        16.6737650000       -1.4908490000       -1.9414220000
  O        13.8975910000        4.3959730000       -5.9202990000
  H        13.4953300000        4.3902300000       -5.0376400000
  H        14.8611170000        4.3996220000       -5.6633420000
  O        14.3361500000       14.4074670000        5.4702160000
  H        13.8897560000       13.9630990000        4.7272630000
  H        14.8637010000       13.7282250000        5.9404230000
  O        24.2750570000       -3.2627190000        1.6685900000
  H        24.8378010000       28.8458480000        2.5040250000
  H        23.7699390000       -2.4417520000        1.7274810000
  O        -8.4038100000        0.1741300000        0.6999670000
  H        -8.8046340000        1.0364430000        0.8879630000
  H        -9.2005620000       -0.3473560000        0.4580730000
  O        23.0097920000       26.8896680000       -3.1172350000
  H        23.7581390000       26.2656310000       -3.2579250000
  H        23.0958140000       26.9744240000       -2.1404540000
  O        -5.4863090000       -1.7526400000       -3.2906090000
  H        -6.3838300000       -1.5273150000       -3.0390100000
  H        -5.3343360000       -1.2394490000       -4.0839120000
  O         5.5824230000        7.3047070000        4.8142950000
  H         5.2286380000        7.6175910000        3.9075500000
  H         5.4402940000        6.2722570000        4.9449330000
  O        27.2881680000        1.8457220000        5.1093050000
  H        26.3424210000        1.9197510000        4.8661400000
  H        27.6887150000        2.2816150000        4.3038890000
  O        17.9386140000       13.7129340000        8.4674130000
  H        17.7860490000       12.7511140000        8.5297470000
  H        18.6944370000       13.7221800000        7.8476760000
  O         2.1071930000       11.4663590000       -2.1470710000
  H         2.2393470000       12.4563870000       -2.2384500000
  H         1.9641150000       11.2328990000       -3.0571590000
  O         6.5288930000       12.1082170000        9.3774760000
  H         7.4293280000       11.7876500000        9.2575080000
  H         6.0496580000       11.3702110000        8.8750510000
  O         8.3357080000       23.8342420000      -11.7826930000
  H         7.4610300000       23.4313280000      -11.9417830000
  H         8.7320000000       23.1448150000      -11.1893230000
  O        33.3510400000       27.7230640000      -12.4432180000
  H        33.5327530000       28.1429410000      -11.5469730000
  H         1.4254210000       28.5581470000      -12.9913620000
  O         3.8703850000       23.4845200000       -4.1769420000
  H         3.6833210000       24.4576170000       -4.2432530000
  H         3.0427850000       23.1506290000       -3.7723680000
  O         4.1649450000       -0.9629930000        1.7343920000
  H         4.9488980000       -1.5332790000        1.7528290000
  H         3.6588810000       -1.3614510000        2.4760230000
  O         9.3945390000        0.2465000000       -0.1696020000
  H         8.6674970000       -0.1272010000       -0.7392630000
  H         8.9547970000        1.1068740000        0.0208970000
  O        19.5284350000       26.6537840000       -7.7934720000
  H        18.7896610000       26.0610180000       -8.1046930000
  H        19.7397350000       27.0431940000       -8.6739130000
  O        13.1915020000       12.9063810000        0.5294500000
  H        12.7408400000       12.9732710000        1.3901630000
  H        14.0528210000       13.2874930000        0.7253670000
  O        -1.6113220000       19.4737800000        2.6662730000
  H        -1.1924560000       20.3274570000        2.4285080000
  H        -1.4581470000       19.4421750000        3.6076680000
  O         2.1133470000       20.5485210000        8.7924940000
  H         2.7807130000       21.2057670000        8.4854530000
  H         2.0145000000       20.8910540000        9.7044370000
  O        22.3321570000        0.1581460000      -10.4431550000
  H        22.8571970000       -0.2366840000       -9.6980470000
  H        23.0818480000        0.1561930000      -11.1054030000
  O        -2.3706470000       16.4790860000       -4.5750400000
  H        -2.0453620000       15.7203870000       -5.1075880000
  H        -2.4954590000       17.1661550000       -5.2793960000
  O        18.7565360000       11.8817050000       -3.7865030000
  H        18.2071700000       12.3629500000       -4.4288270000
  H        18.0995790000       11.6293130000       -3.0907950000
  O        11.1554240000       -1.9584000000      -12.8803190000
  H        10.5253720000       -2.5614670000      -12.4034890000
  H        10.8275790000       -1.0877680000      -12.5003640000
  O        24.4486310000        1.7751640000       -7.3585400000
  H        24.5848270000        2.6218550000       -7.8570590000
  H        23.5289360000        1.9678380000       -7.0388670000
  O        13.5619050000        2.9805640000       11.6980930000
  H        14.4522990000        3.2200670000       11.9229290000
  H        13.0661960000        3.4344240000       12.4284440000
  O        24.7723060000       23.9004590000      -11.1624330000
  H        24.2738400000       23.0935730000      -11.4953540000
  H        24.2787170000       24.0214960000      -10.3058240000
  O        13.2031970000       17.4360500000      -12.0620960000
  H        13.1283470000       17.6246930000      -13.0081580000
  H        12.9305360000       18.2938420000      -11.6881600000
  O        15.8515980000       10.3862670000       10.2166490000
  H        15.3608180000       11.0066560000       10.7162910000
  H        15.8778020000        9.4625280000       10.5975160000
  O        23.8699470000       14.2730810000       -2.6267430000
  H        24.4739760000       13.4660630000       -2.8245590000
  H        24.3877140000       14.5321040000       -1.8057240000
  O         9.6753220000        8.1387730000       -9.8669640000
  H         9.1579560000        8.9108420000       -9.5092660000
  H         9.4698500000        7.5001580000       -9.1287040000
  O         0.0313670000       19.7764550000       -1.3974710000
  H         0.3650550000       18.8834930000       -1.6987090000
  H         0.6140200000       19.8776130000       -0.5858830000
  O        14.5646830000       -4.1366790000       -0.6700750000
  H        13.7682550000       -3.6977970000       -1.0392210000
  H        14.7949300000       -3.5313430000        0.0368130000
  O         9.5259390000       10.0635860000       -0.0921760000
  H        10.4162980000       10.4260490000       -0.4427510000
  H         8.9287090000       10.4629750000       -0.7338450000
  O        19.7485180000       21.2239400000        8.2194770000
  H        19.0220170000       21.5807900000        7.6344820000
  H        19.2332340000       20.4613130000        8.6088290000
  O        13.2317230000       15.0382370000      -11.0327660000
  H        13.2240870000       15.9726880000      -11.3556690000
  H        13.4263010000       14.5724500000      -11.8951850000
  O        23.4473800000       22.0414920000       -7.0104710000
  H        22.8394030000       21.2431550000       -6.9416140000
  H        24.2608030000       21.6456870000       -6.6840060000