#     Step Nr.          Time[fs]        Kin.[a.u.]          Temp[K]            Pot.[a.u.]        Cons Qty[a.u.]        UsedTime[s]
         0            0.000000         3.843405441       300.000000000     -1268.284024686     -1264.440144223         0.000000000
         1            1.000000         3.890242618       303.655912211     -1268.373866781     -1264.482288181        48.215536729
         2            2.000000         3.763893389       293.793624904     -1268.198427868     -1264.432341314        14.163507052
         3            3.000000         3.808301799       297.259957880     -1268.259444339     -1264.448112803        13.545958035
         4            4.000000         3.964801013       309.475625757     -1268.466194453     -1264.497509082        14.195038244
         5            5.000000         3.818914745       298.088359678     -1268.207498513     -1264.383826729        14.167883538
         6            6.000000         3.799889339       296.603316788     -1268.212275605     -1264.406776641        14.257099763
         7            7.000000         3.799726890       296.590636727     -1268.218127536     -1264.411948670        13.547282070
         8            8.000000         3.787922842       295.669262588     -1268.173501476     -1264.378294487        13.527372222
         9            9.000000         3.897462588       304.219472636     -1268.321897178     -1264.416315561        12.876090240
        10           10.000000         3.723711330       290.657183095     -1268.096576206     -1264.363914148        12.893143304
        11           11.000000         3.665792864       286.136312196     -1268.043593672     -1264.368063812        12.986352310
        12           12.000000         3.808553819       297.279629550     -1268.235424783     -1264.416368423        12.950133488
        13           13.000000         3.750945708       292.782983586     -1268.142031660     -1264.379820729        12.931197572
        14           14.000000         3.770113150       294.279113250     -1268.201830493     -1264.419709474        12.234554622
        15           15.000000         3.698986423       288.727261227     -1268.135156504     -1264.423440976        12.871945586
        16           16.000000         3.652582087       285.105134691     -1268.122751417     -1264.456757255        12.894330613
        17           17.000000         3.854455000       300.862481873     -1268.372755439     -1264.504222197        12.937893957
        18           18.000000         3.778809242       294.957893428     -1268.252431076     -1264.458870632        12.847493127
        19           19.000000         3.692232891       288.200109024     -1268.164417155     -1264.456787005        12.282297641
        20           20.000000         3.752343660       292.892101854     -1268.256259463     -1264.487900417        12.984079693
        21           21.000000         3.725217145       290.774720617     -1268.222653844     -1264.480820007        12.874138236
        22           22.000000         3.843226208       299.986009831     -1268.374971185     -1264.514539193        12.912681445
        23           23.000000         3.768900220       294.184437049     -1268.300281854     -1264.513587827        13.582164153
        24           24.000000         3.630905648       283.413163387     -1268.103429627     -1264.454174033        13.492474519
        25           25.000000         3.804226510       296.941858038     -1268.375871417     -1264.552769709        13.539740715
        26           26.000000         3.817434225       297.972796525     -1268.352150882     -1264.515314297        13.555344284
        27           27.000000         3.786824948       295.583565605     -1268.330968575     -1264.524221163        13.574839301
        28           28.000000         3.760224074       293.507213721     -1268.280528943     -1264.499876839        13.535966553
        29           29.000000         3.637885606       283.957989432     -1268.120262480     -1264.461471072        13.493842822
        30           30.000000         3.804649696       296.974890197     -1268.348177871     -1264.522174364        12.866786521
        31           31.000000         3.829764070       298.935212134     -1268.373701035     -1264.522134249        12.848700657
        32           32.000000         3.685434792       287.669478108     -1268.169887851     -1264.462214721        12.979331862
        33           33.000000         3.754960974       293.096398363     -1268.293183130     -1264.515577605        12.234089859
        34           34.000000         3.731444654       291.260813688     -1268.288450082     -1264.533971103        12.937196180
        35           35.000000         3.806324211       297.105595710     -1268.355068095     -1264.525336221        13.470098265
        36           36.000000         3.831257172       299.051757421     -1268.406802093     -1264.551767047        13.502430201
        37           37.000000         3.629163839       283.277205154     -1268.133223855     -1264.479927720        13.582037322
        38           38.000000         3.722825562       290.588043755     -1268.227752200     -1264.480478716        12.852365445
        39           39.000000         3.816644531       297.911156359     -1268.342074043     -1264.500681002        12.867119104
        40           40.000000         3.772425246       294.459585627     -1268.336003681     -1264.538535485        13.573475890
        41           41.000000         3.804110695       296.932817982     -1268.416009037     -1264.586573063        13.532588568
        42           42.000000         3.698954784       288.724791591     -1268.254808243     -1264.530259004        13.471255276
        43           43.000000         3.775657506       294.711882238     -1268.334121115     -1264.532624269        13.568303846
        44           44.000000         3.889048195       303.562680646     -1268.501623469     -1264.586496860        13.510377754
        45           45.000000         3.730512163       291.188027357     -1268.279788407     -1264.522957288        12.883156158
        46           46.000000         3.751967173       292.862714863     -1268.311075084     -1264.532569858        12.949110899
        47           47.000000         3.783530744       295.326433973     -1268.356720459     -1264.546448183        12.868441671
        48           48.000000         3.811163854       297.483357792     -1268.346742385     -1264.508643345        12.924292684
        49           49.000000         3.910890560       305.267603379     -1268.476634810     -1264.538616299        12.848938383
        50           50.000000         3.742402968       292.116173383     -1268.256767787     -1264.487038524        12.884120930
        51           51.000000         3.748487804       292.591130027     -1268.245669544     -1264.469676227        12.954204291
        52           52.000000         3.896576419       304.150301997     -1268.438398978     -1264.514148990        12.887135413
        53           53.000000         3.818804160       298.079727829     -1268.337108206     -1264.490455335        12.821806185
        54           54.000000         3.850606573       300.562089893     -1268.388917516     -1264.510289752        12.922791436
        55           55.000000         3.805684335       297.055649713     -1268.342065231     -1264.508187424        12.877654441
        56           56.000000         3.808095118       297.243825236     -1268.357365872     -1264.520911691        12.922698069
        57           57.000000         3.977221307       310.445101470     -1268.586412601     -1264.580665195        12.927272014
        58           58.000000         3.842394954       299.921125601     -1268.404781556     -1264.533672712        13.517997511
        59           59.000000         3.771242280       294.367248319     -1268.339011757     -1264.538870596        12.863916557
        60           60.000000         3.851794929       300.654847995     -1268.473520761     -1264.592651618        13.461615156
        61           61.000000         3.840979450       299.810637382     -1268.400107231     -1264.529876521        13.534288209
        62           62.000000         3.941710006       307.673239205     -1268.540217909     -1264.569074424        13.540191084
        63           63.000000         3.833758666       299.247013480     -1268.411199053     -1264.547809513        13.517864343
        64           64.000000         3.733647110       291.432728092     -1268.272892015     -1264.509422718        12.899309259
        65           65.000000         3.908148316       305.053555392     -1268.523599739     -1264.585450271        12.869116388
        66           66.000000         3.857515178       301.101346467     -1268.444091219     -1264.556384771        12.841232073
        67           67.000000         3.796623411       296.348392223     -1268.407646646     -1264.580641111        12.869693700
        68           68.000000         3.775071547       294.666144761     -1268.410577844     -1264.604942721        12.875941977
        69           69.000000         3.717389063       290.163693644     -1268.306114788     -1264.557995908        12.872656558
        70           70.000000         3.904383975       304.759726827     -1268.531787272     -1264.596522559        12.830804806
        71           71.000000         3.887102935       303.410841825     -1268.470963475     -1264.552817486        12.920208581
        72           72.000000         3.743643770       292.213025182     -1268.287269560     -1264.512417321        12.879846655
        73           73.000000         3.821465147       298.287433260     -1268.413694173     -1264.560869942        12.842339601
        74           74.000000         3.809163835       297.327244753     -1268.373173053     -1264.532503943        12.893052142
        75           75.000000         3.870257675       302.095971960     -1268.442088810     -1264.540182911        12.875856567
        76           76.000000         3.860894294       301.365105980     -1268.448419264     -1264.555728348        12.871097378
        77           77.000000         3.714150010       289.910866827     -1268.253598245     -1264.507505211        12.902910460
        78           78.000000         3.871430255       302.187498586     -1268.484641932     -1264.581139305        12.934597239
        79           79.000000         3.922379554       306.164385785     -1268.590431986     -1264.635843263        13.491681919
        80           80.000000         3.819419030       298.127722014     -1268.427169982     -1264.575392986        12.905713949
        81           81.000000         3.816621255       297.909339494     -1268.450414412     -1264.601289713        12.845223144
        82           82.000000         3.720393875       290.398236536     -1268.282585208     -1264.529550846        12.881879427
        83           83.000000         3.830247658       298.972958981     -1268.412014566     -1264.549007442        12.909431819
        84           84.000000         3.909221868       305.137352314     -1268.513237345     -1264.571136583        12.845806781
        85           85.000000         3.740145800       291.939988373     -1268.290924036     -1264.517773493        12.903674848
        86           86.000000         3.797193440       296.392886308     -1268.388904788     -1264.558596482        12.876355343
        87           87.000000         3.829805227       298.938424695     -1268.418653813     -1264.555631246        12.858144704
        88           88.000000         3.822429432       298.362701242     -1268.394270573     -1264.538523911        12.208183199
        89           89.000000         3.863340676       301.556060216     -1268.477720425     -1264.580964405        12.887375802
        90           90.000000         3.692813339       288.245416364     -1268.257308325     -1264.530983617        12.959263347
        91           91.000000         3.746806282       292.459877516     -1268.300822791     -1264.520433741        12.910912052
        92           92.000000         3.900609900       304.465138467     -1268.516901463     -1264.582651587        12.853272006
        93           93.000000         3.832480619       299.147254460     -1268.397495069     -1264.531310180        12.948882915
        94           94.000000         3.850779143       300.575560026     -1268.416569554     -1264.532021716        12.878354274
        95           95.000000         3.784265168       295.383759982     -1268.335459925     -1264.517362108        12.899537243
        96           96.000000         3.778400976       294.926025933     -1268.282477471     -1264.470190119        12.897494949
        97           97.000000         3.892486251       303.831040725     -1268.447805986     -1264.521388408        12.931426261
        98           98.000000         3.746333482       292.422972709     -1268.287858929     -1264.507545607        12.887688886
        99           99.000000         3.738363310       291.800854784     -1268.310431794     -1264.538056271        12.920925830
       100          100.000000         3.851749017       300.651264244     -1268.447708753     -1264.561932264        12.929651625
       101          101.000000         3.843137363       299.979074924     -1268.410556843     -1264.533377745        13.542762138
       102          102.000000         3.911559722       305.319835345     -1268.513145285     -1264.567527400        13.593116697
       103          103.000000         3.787361597       295.625454128     -1268.362386822     -1264.540941729        13.547078993
       104          104.000000         3.721341187       290.472179687     -1268.275114411     -1264.519674280        13.539242320
       105          105.000000         3.878917339       302.771908759     -1268.465714379     -1264.552701097        12.936180223
       106          106.000000         3.814567134       297.749003471     -1268.367565815     -1264.518904208        13.571873553
       107          107.000000         3.800206795       296.628096050     -1268.355191557     -1264.520896248        12.887197990
       108          108.000000         3.819074311       298.100814694     -1268.400202576     -1264.547053573        12.896026507
       109          109.000000         3.779299484       294.996159658     -1268.323761913     -1264.510407954        12.939121101
       110          110.000000         3.914827775       305.574925791     -1268.517616046     -1264.568763019        12.897211108
       111          111.000000         3.825978288       298.639710031     -1268.420282202     -1264.560299642        13.627096877
       112          112.000000         3.707707990       289.408029966     -1268.286261293     -1264.544573760        13.593867492
       113          113.000000         3.823150032       298.418948302     -1268.388047279     -1264.530963838        12.882509563
       114          114.000000         3.805230132       297.020196569     -1268.409545200     -1264.570436284        13.536998250
       115          115.000000         3.849512818       300.476716052     -1268.451827625     -1264.568497627        13.575135082
       116          116.000000         3.841576991       299.857278907     -1268.451316293     -1264.575984891        13.550251868
       117          117.000000         3.741300031       292.030082834     -1268.310783349     -1264.535794197        13.592668112
       118          118.000000         3.891657801       303.766375429     -1268.518660062     -1264.593393948        12.880978312
       119          119.000000         3.872629921       302.281139479     -1268.472934105     -1264.566773641        12.908548679
       120          120.000000         3.765203823       293.895911888     -1268.354048532     -1264.555388030        12.927604962
       121          121.000000         3.808349824       297.263706519     -1268.400229719     -1264.558509275        12.951397441
       122          122.000000         3.773818802       294.568360793     -1268.335000724     -1264.527907518        12.898253430
       123          123.000000         3.909481481       305.157616617     -1268.496012108     -1264.553364861        12.890943862
       124          124.000000         3.947127332       308.096092810     -1268.541680266     -1264.561488757        12.943572700
       125          125.000000         3.790118746       295.840665546     -1268.399689779     -1264.576592278        12.887268864
       126          126.000000         3.874727688       302.444882329     -1268.520298373     -1264.612682416        12.946929988
       127          127.000000         3.899865993       304.407072238     -1268.545574717     -1264.612908736        13.535159931
       128          128.000000         3.889454089       303.594363005     -1268.490096668     -1264.567921761        12.924849786
       129          129.000000         3.928681340       306.656276592     -1268.597709430     -1264.636377228        13.598317355
       130          130.000000         3.825928931       298.635857431     -1268.474641654     -1264.616118619        13.560638744
       131          131.000000         3.932861942       306.982596697     -1268.613149060     -1264.647748877        13.571696643
       132          132.000000         4.016762208       313.531497236     -1268.731314887     -1264.682054512        13.617207319
       133          133.000000         3.887783778       303.463985587     -1268.530697753     -1264.610426027        12.912540570
       134          134.000000         3.897353316       304.210943291     -1268.548868608     -1264.619024864        13.565192573
       135          135.000000         3.862332552       301.477370327     -1268.497451712     -1264.602616380        13.631935008
       136          136.000000         3.901358019       304.523533541     -1268.533019224     -1264.599140101        13.602000833
       137          137.000000         3.992374566       311.627900831     -1268.614223202     -1264.589295206        14.219254963
       138          138.000000         3.829530595       298.916988092     -1268.385234334     -1264.523093796        14.263136908
       139          139.000000         3.853234042       300.767179086     -1268.404789590     -1264.518887142        13.606275633
       140          140.000000         3.929216446       306.698044654     -1268.477958933     -1264.516010475        13.558561489
       141          141.000000         3.859966753       301.292706093     -1268.375508427     -1264.482731103        12.929653749
       142          142.000000         3.883069831       303.096034789     -1268.466735067     -1264.550769434        12.973544151
       143          143.000000         3.776739139       294.796309963     -1268.353899909     -1264.544174408        12.897338837
       144          144.000000         3.786038904       295.522210327     -1268.428174333     -1264.609068395        13.603551541
       145          145.000000         3.940204465       307.555723068     -1268.568705767     -1264.595358307        13.597308576
       146          146.000000         3.840692215       299.788216985     -1268.401331806     -1264.527405461        12.958597612
       147          147.000000         3.827807496       298.782490245     -1268.370342663     -1264.509207861        12.902366851
       148          148.000000         3.842067154       299.895538966     -1268.425575489     -1264.550088548        12.972381223
       149          149.000000         3.796886474       296.368925810     -1268.388336256     -1264.557937899        12.898070604
       150          150.000000         3.890693861       303.691134354     -1268.554255494     -1264.629961194        13.589214392
       151          151.000000         3.789669977       295.805636517     -1268.413033195     -1264.589667992        12.942992188
       152          152.000000         3.744200828       292.256506792     -1268.331964972     -1264.553983357        12.997140408
       153          153.000000         3.879329230       302.804059264     -1268.521208387     -1264.608025511        13.626616888
       154          154.000000         3.846339671       300.229033552     -1268.442365739     -1264.562094117        12.998043403
       155          155.000000         3.857808252       301.124222548     -1268.480667212     -1264.588845654        13.600620296
       156          156.000000         3.811992655       297.548050569     -1268.437378819     -1264.591288797        12.940088972
       157          157.000000         3.741242561       292.025596975     -1268.274135202     -1264.498717650        12.963259425
       158          158.000000         3.881043802       302.937891477     -1268.468640632     -1264.553357193        12.969758384
       159          159.000000         3.844751060       300.105033346     -1268.436672181     -1264.557611468        13.654007118
       160          160.000000         3.788767219       295.735171101     -1268.361365915     -1264.538218659        13.557450928
       161          161.000000         3.866645795       301.814043889     -1268.411880245     -1264.510790037        13.007073641
       162          162.000000         3.844032989       300.048983726     -1268.343982352     -1264.465436633        13.559610058
       163          163.000000         3.919592717       305.946857002     -1268.469532207     -1264.515353917        13.598688893
       164          164.000000         3.878991083       302.777664910     -1268.418557364     -1264.504893441        13.603003729
       165          165.000000         3.753625157       292.992130107     -1268.226567462     -1264.438177224        13.634988841
       166          166.000000         3.874039470       302.391162942     -1268.412229756     -1264.503342994        13.623504583
       167          167.000000         3.888566875       303.525110850     -1268.409542494     -1264.486039383        13.667217255
       168          168.000000         3.873985717       302.386967174     -1268.383175925     -1264.474154723        13.624697514
       169          169.000000         3.898839113       304.326918373     -1268.461886336     -1264.527903026        13.672836449
       170          170.000000         3.812799323       297.611015601     -1268.385001500     -1264.536939468        14.236581642
       171          171.000000         3.918491039       305.860864689     -1268.557265549     -1264.603391832        14.992144503
       172          172.000000         3.940565783       307.583926039     -1268.527259287     -1264.551173014        14.286891527
       173          173.000000         3.807928485       297.230818566     -1268.354891152     -1264.511287662        15.573035069
       174          174.000000         3.862493300       301.489917660     -1268.454009104     -1264.555687034        14.312893208
       175          175.000000         3.856348372       301.010270538     -1268.474905775     -1264.582568359        14.941379000
       176          176.000000         3.886751591       303.383417394     -1268.508304932     -1264.585396608        15.016409073
       177          177.000000         3.916917757       305.738060945     -1268.561987858     -1264.608731977        15.620019928
       178          178.000000         3.757345067       293.282490585     -1268.349717983     -1264.555842673        14.289187744
       179          179.000000         3.805925678       297.074487904     -1268.418185751     -1264.575548492        14.357030112
       180          180.000000         3.876553431       302.587392141     -1268.440130884     -1264.526684882        13.660578083
       181          181.000000         3.828610901       298.845200650     -1268.366878055     -1264.501185631        13.642644159
       182          182.000000         3.878601173       302.747230167     -1268.461758717     -1264.545883636        13.685726393
       183          183.000000         3.824743812       298.543352015     -1268.301291916     -1264.439073490        13.043388125
       184          184.000000         3.873218693       302.327096547     -1268.400276649     -1264.489379854        14.282234393
       185          185.000000         3.974460456       310.229601076     -1268.533778601     -1264.521420838        13.657507971
       186          186.000000         3.859005046       301.217639250     -1268.355968886     -1264.458822030        13.033995911
       187          187.000000         3.862338728       301.477852372     -1268.348660263     -1264.447927592        12.974263400
       188          188.000000         3.885100148       303.254512756     -1268.381644444     -1264.457887940        13.000048246
       189          189.000000         3.876847059       302.610311503     -1268.360955774     -1264.445176506        13.100652535
       190          190.000000         3.959224684       309.040361019     -1268.474867013     -1264.476416841        12.370980278
       191          191.000000         3.862391828       301.481997138     -1268.341628375     -1264.439693458        13.025444761
       192          192.000000         3.853446176       300.783737315     -1268.304697968     -1264.411383095        12.985232249
       193          193.000000         3.961934972       309.251914654     -1268.447145086     -1264.445000047        12.982702564
       194          194.000000         3.905253264       304.827579896     -1268.375756478     -1264.429922752        12.359691512
       195          195.000000         3.925572514       306.413614731     -1268.427887107     -1264.461343588        13.001330402
       196          196.000000         3.898358313       304.289389094     -1268.393315910     -1264.453573308        13.034095164
       197          197.000000         3.865355067       301.713295118     -1268.364234605     -1264.457066306        13.051802408
       198          198.000000         3.974779053       310.254469426     -1268.507573882     -1264.490532015        12.986713123
       199          199.000000         3.894751130       304.007827621     -1268.417806146     -1264.480310428        13.730024885
       200          200.000000         3.847321026       300.305634028     -1268.365385004     -1264.474825327        13.016622402
       201          201.000000         3.904274837       304.751207982     -1268.455875527     -1264.507854808        13.165354494
       202          202.000000         3.858089214       301.146153275     -1268.368401741     -1264.466039776        13.011765689
       203          203.000000         3.900249157       304.436980425     -1268.458778531     -1264.513715279        13.711264193
       204          204.000000         3.850445157       300.549490507     -1268.403054080     -1264.507235222        13.091275867
       205          205.000000         3.781520980       295.169560288     -1268.310482745     -1264.483026370        13.020190548
       206          206.000000         3.896729567       304.162256075     -1268.451864640     -1264.508632532        13.012890723
       207          207.000000         3.870772738       302.136175613     -1268.405766163     -1264.487900055        13.010367341
       208          208.000000         3.849214115       300.453400533     -1268.390964830     -1264.494054459        13.058535628
       209          209.000000         3.871960099       302.228855984     -1268.384766081     -1264.464494277        12.983551092
       210          210.000000         3.810664151       297.444353159     -1268.295388862     -1264.435786824        13.032141324
       211          211.000000         3.886137971       303.335520813     -1268.400967573     -1264.465257176        13.027892701
       212          212.000000         3.860605090       301.342531917     -1268.418758541     -1264.507925925        13.658504203
       213          213.000000         3.781898199       295.199004391     -1268.370556351     -1264.537771847        13.722415626
       214          214.000000         3.868586518       301.965528512     -1268.487151193     -1264.567016617        12.978675004
       215          215.000000         3.863337783       301.555834422     -1268.414616181     -1264.499048343        13.054683030
       216          216.000000         3.886361543       303.352971936     -1268.448885683     -1264.509595193        13.639663052
       217          217.000000         3.896655319       304.156460615     -1268.445797057     -1264.495491781        13.049989071
       218          218.000000         3.799992346       296.611357059     -1268.365946503     -1264.511572475        13.649406001
       219          219.000000         3.867967732       301.917228693     -1268.451829046     -1264.528744369        13.711837266
       220          220.000000         3.864013846       301.608605083     -1268.481759802     -1264.561873668        13.649971373
       221          221.000000         3.786892227       295.588817134     -1268.382163538     -1264.538638562        13.686043255
       222          222.000000         3.831021382       299.033352650     -1268.458023424     -1264.569609611        13.619439930
       223          223.000000         3.809410002       297.346459543     -1268.384866571     -1264.517295715        13.745401930
       224          224.000000         3.876005407       302.544615682     -1268.462703403     -1264.527758172        13.628369592
       225          225.000000         3.909727905       305.176851437     -1268.481407848     -1264.511934503        12.981899697
       226          226.000000         3.781848520       295.195126613     -1268.350151775     -1264.507742104        12.987005021
       227          227.000000         3.806280842       297.102210514     -1268.402408842     -1264.534759947        13.013976414