    2698
 i =        0, time =        0.000, E =     -1268.2840246864
  C        13.4250020000       12.9335050000        9.8590740000
  O        13.0381140000       13.9677670000       10.3173150000
  O        13.8778400000       11.5155930000       11.6135640000
  N        13.6977170000       12.0884620000        8.9054640000
  H        14.5936160000       12.0775670000       11.9928910000
  H        14.1990670000       12.5321630000        8.0242060000
  H        13.7543820000       10.9953560000        9.1639320000
  O        14.3995000000        9.8124240000       10.0724380000
  H        14.2173170000       10.5591140000       10.9307550000
  H        13.6986270000        9.1007030000        9.9958180000
  O        28.9324170000       14.5524820000        0.8253500000
  H        29.8266740000       14.7097870000        0.4840080000
  H        28.9814820000       13.6952940000        1.2421060000
  O        -0.7234830000       17.9215530000        0.3244340000
  H        -1.6003930000       17.7406830000        0.6644320000
  H        -0.5183440000       18.7966520000        0.6976270000
  O         1.1017160000        8.9968960000      -12.5923540000
  H         0.3697510000        8.4775750000      -12.0726520000
  H         0.4682520000        9.2556780000      -13.3496070000
  O        27.2230010000       23.3677860000       -7.8028000000
  H        27.2573430000       24.2704030000       -7.4063000000
  H        26.3488880000       23.0735950000       -7.3828170000
  O        23.0816190000        7.9002780000        9.6232380000
  H        22.6665420000        8.3694040000       10.3493550000
  H        22.7064480000        8.3823480000        8.8782300000
  O        17.4120710000       -2.6868080000        8.9097780000
  H        16.4693160000       -2.4980440000        8.6873570000
  H        17.4439240000       -3.6373090000        8.6996940000
  O        -2.4160140000       22.3162120000       -4.1757540000
  H        -3.3394560000       22.1879960000       -3.9995300000
  H        -2.3591910000       23.2181380000       -4.4842200000
  O        -3.3335190000        8.3782070000       -0.4635440000
  H        -3.8900490000        9.1353710000       -0.8631090000
  H        -2.7208170000        8.2975390000       -1.2651350000
  O        25.8371450000        2.3345400000       -2.6273300000
  H        25.4938680000        2.5980910000       -3.4757680000
  H        26.1669830000        1.4255590000       -2.7375360000
  O        16.5982740000       24.4858060000       -5.5124160000
  H        17.5576380000       24.5777680000       -5.7801560000
  H        16.3194810000       23.7760520000       -6.1694090000
  O         0.3446710000       10.1242320000        3.2245900000
  H        -0.5089540000       10.0797250000        2.7957150000
  H         0.8147110000        9.4735360000        2.6956200000
  O         7.0417390000       18.3034670000      -13.0353400000
  H         6.3691120000       18.9443090000      -12.7245640000
  H         7.4949460000       18.8214300000      -13.6782210000
  O        23.1336170000        4.0017110000       -3.6080940000
  H        22.7151150000        4.6750590000       -2.9811620000
  H        23.8195920000        4.5742160000       -3.9792230000
  O        -0.4228930000        1.1148050000      -10.0547830000
  H         0.3002500000        1.5756350000      -10.5828390000
  H        -0.5781750000        1.8121960000       -9.3808590000
  O        21.6606390000        2.1197660000       -2.4004900000
  H        22.0921750000        1.9247490000       -1.5843400000
  H        22.2859480000        2.8543380000       -2.7677100000
  O         9.6829470000        2.8461010000      -10.7102310000
  H         8.8098600000        2.7905530000      -11.1198190000
  H        10.1944630000        3.0762460000      -11.5113820000
  O        -2.8868710000       22.4732380000       -0.0490990000
  H        -2.8533210000       21.5289730000       -0.4419970000
  H        -2.1455700000       22.8857170000       -0.5754520000
  O        25.4269560000       -5.3050170000       -4.8577140000
  H        24.6218990000       -4.8886530000       -5.0848930000
  H        25.8950840000       -4.6337360000       -4.3339560000
  O        21.7740880000       28.1694680000       -9.5056410000
  H        21.0736200000       27.9302830000       -8.7710290000
  H        22.5425850000       27.6844140000       -8.9941490000
  O        14.9895570000       13.5570940000      -10.9732770000
  H        14.8374460000       14.3259190000      -11.5682940000
  H        15.0581280000       14.0544830000      -10.1227840000
  O        10.8458840000       15.8350410000      -15.5094490000
  H        10.3657640000       16.5841770000      -15.0848460000
  H        11.0542690000       16.2351530000      -16.3372570000
  O        17.0316100000       25.6440750000      -13.3937710000
  H        17.1643870000       25.3844470000      -12.4217020000
  H        16.1006620000       25.3861560000      -13.5568800000
  O        20.7991810000        5.2063530000       -5.8509130000
  H        21.2418980000        5.6859570000       -6.6023040000
  H        20.8906380000        4.2941680000       -6.1379230000
  O        23.9116710000       -0.6896470000       -3.9185880000
  H        23.6282520000        0.0823470000       -4.3989420000
  H        23.5881520000       -0.4616900000       -3.0106130000
  O        -2.8992040000        5.5697870000      -11.9198070000
  H        -2.9893230000        5.5697680000      -12.8741560000
  H        -3.2651580000        4.7309020000      -11.6603060000
  O        20.6262550000       11.7920350000       -0.8721530000
  H        21.1763840000       11.3657970000       -0.2356600000
  H        20.9159240000       12.7178600000       -0.7275660000
  O        15.2980360000        7.1709850000        1.8290280000
  H        15.8448040000        7.9201400000        1.5240050000
  H        14.4092750000        7.4178260000        1.4778350000
  O         1.5177810000       24.2167630000       -0.8860580000
  H         1.9313040000       25.0461690000       -1.1256250000
  H         1.3584630000       24.2547860000        0.0629090000
  O        26.6201970000        7.7007450000      -16.1090030000
  H        25.8343520000        8.1986600000      -16.4063780000
  H        26.3011680000        7.3559500000      -15.2751480000
  O        15.1036870000       -0.9571270000       -5.7519660000
  H        15.2642270000       -0.8459950000       -6.7392850000
  H        15.4595650000       -0.0715190000       -5.4469090000
  O        22.5729680000       -2.6407800000        2.2515400000
  H        22.7362960000       -3.1548740000        1.4175340000
  H        22.3786830000       -1.7361300000        1.8809900000
  O        -0.5871410000        9.7622490000      -14.4047140000
  H        -1.5371000000        9.7651810000      -14.7280110000
  H        -0.1965120000       10.1304270000      -15.1704030000
  O        23.8954790000       -1.3454900000        8.8160180000
  H        23.4124150000       -0.5920200000        8.3589740000
  H        23.2119390000       30.4066200000        9.4770690000
  O         7.9883680000       -3.6673120000        1.7130220000
  H         7.4849540000       -2.9515540000        2.0277840000
  H         8.1722210000       -3.3161450000        0.7979090000
  O         3.9659720000        6.6607120000       -2.6413630000
  H         3.8847200000        7.3308320000       -1.8593860000
  H         4.9756880000        6.7964820000       -2.6303770000
  O         7.4490760000       -1.9907080000      -13.7471690000
  H         7.0164080000       -2.5452770000      -14.4552310000
  H         8.3031850000       -2.4884690000      -13.6806070000
  O        25.0860370000       16.3603940000        6.1511290000
  H        25.7560920000       15.9842660000        5.5546250000
  H        25.5543790000       17.1082550000        6.5029270000
  O        23.9128550000        6.8690180000        0.4110410000
  H        24.9087770000        6.8057450000        0.4392180000
  H        23.7787630000        6.0873770000        0.9863470000
  O        23.7548180000        1.7702580000       -4.7958130000
  H        23.9448430000        2.0470770000       -5.7285170000
  H        23.3701150000        2.5969200000       -4.4590150000
  O         3.1569960000        4.1856760000      -12.8807540000
  H         3.6790630000        3.3403890000      -12.7868760000
  H         3.8870600000        4.7626430000      -13.1850400000
  O         9.6842360000        3.2091180000        2.7950400000
  H        10.3072460000        3.9170110000        2.7801980000
  H         8.7659420000        3.6943540000        2.7474240000
  O        13.3247640000        0.8050640000       -2.1032430000
  H        12.7897940000        1.5204780000       -1.7191480000
  H        13.0519850000        0.8562590000       -3.0218500000
  O         4.7855850000        1.5067110000      -12.4188940000
  H         4.0547490000        1.1262420000      -13.0158400000
  H         4.4554630000        1.1324840000      -11.5600440000
  O        27.9424060000       -0.0273130000        1.6621970000
  H        28.0776650000       -0.9664610000        1.7620640000
  H        28.7041590000        0.2574860000        1.1007320000
  O        13.3737530000       11.7687290000        0.7031710000
  H        13.5427150000       11.4971250000        1.5978150000
  H        12.4881110000       11.3828410000        0.5171910000
  O         4.7714630000        9.5291680000      -11.6137700000
  H         4.9761130000        9.6709750000      -12.6038590000
  H         4.5828400000       10.4903100000      -11.3303290000
  O         9.7731850000       15.3848850000       -9.9079930000
  H        10.0291940000       16.1182080000      -10.4916150000
  H         8.9323620000       15.0796900000      -10.3013680000
  O        26.3948420000        2.7308770000        8.6653640000
  H        26.6974140000        1.8912250000        9.0204960000
  H        26.8055230000        2.7784640000        7.7982720000
  O        21.8504770000       11.5483290000        9.0987140000
  H        22.2051330000       10.7770860000        8.5751530000
  H        22.6264320000       12.1928260000        9.1733190000
  O        11.6275020000       -4.1765030000       -9.7250410000
  H        11.4141980000       -3.3058520000       -9.2933610000
  H        11.9776900000       -4.6906920000       -8.9671650000
  O        16.9863930000       14.7067220000       -1.6476210000
  H        16.5473330000       14.3039550000       -0.9185000000
  H        16.4690460000       15.5093360000       -1.7592980000
  O         5.3312510000        8.0320670000       13.7319140000
  H         6.1621060000        7.5662000000       13.6847670000
  H         5.7200030000        8.9561140000       13.7051150000
  O         7.4498610000       18.6376290000        3.5753830000
  H         6.9430280000       18.8518350000        2.7205610000
  H         6.7408650000       19.0330510000        4.1798870000
  O         7.8938510000       25.9819160000       -5.8446750000
  H         7.9437690000       26.5789450000       -5.0714070000
  H         8.7963610000       26.0115380000       -6.1767480000
  O         8.3189020000        0.4840750000      -14.4467430000
  H         8.1408570000       -0.4503860000      -14.1746640000
  H         8.9983700000        0.3748620000      -15.1665390000
  O        12.3935790000       21.2005160000        6.4437170000
  H        13.0040290000       20.4872650000        6.0813090000
  H        11.6010230000       20.7848420000        6.5273860000
  O         1.9350030000       -1.4514090000        9.7273260000
  H         1.1580580000       -0.7750440000        9.8075200000
  H         2.3834720000       -0.9900260000        8.9870770000
  O        16.3584290000       -2.0334390000      -13.9703250000
  H        17.1435450000       -1.7521210000      -14.4873580000
  H        16.7846410000       -2.6830090000      -13.3707750000
  O        24.9960610000       21.6267320000      -13.4595380000
  H        25.7967190000       22.1990010000      -13.5593070000
  H        24.3379780000       22.3482480000      -13.4789110000
  O         8.3829050000       -5.8554110000        3.1376860000
  H         8.2437180000       27.0137630000        2.6248710000
  H         9.0569370000       -5.5757550000        3.7984580000
  O         8.1738060000       14.3836450000       -4.3802000000
  H         8.2487080000       15.1696120000       -3.8080730000
  H         7.5174920000       14.6970320000       -5.0413230000
  O        23.1550660000       18.0115910000        5.0360980000
  H        23.2732180000       18.9186080000        5.2663730000
  H        23.9627040000       17.6152610000        5.3342050000
  O         6.9280380000        5.8957130000        0.5302430000
  H         5.8880700000        6.0115780000        0.6936550000
  H         7.0216270000        6.2425460000       -0.3981780000
  O        27.7045330000        3.6989850000       12.5030020000
  H        27.3275590000        3.3341540000       13.3244040000
  H        28.6059420000        3.3077210000       12.6032510000
  O         5.8873300000       -2.4258980000       -2.4599280000
  H         5.1189610000       -2.9869300000       -2.7283750000
  H         5.6015640000       -1.5305220000       -2.7277440000
  O        17.2612190000       20.1750680000        2.6131510000
  H        16.3054830000       20.3360350000        2.7279780000
  H        17.2973920000       19.7757130000        1.7453430000
  O        22.8283810000       28.1688940000       -0.1310160000
  H        21.9642790000       28.0630400000       -0.5357430000
  H        23.3095090000       28.2347300000       -0.9795970000
  O        20.7206730000       11.0293840000       -4.9160870000
  H        21.4419290000       11.2407910000       -5.5509610000
  H        21.1596240000       10.9568860000       -4.0606530000
  O        10.9799930000       -1.0594870000       10.4070250000
  H        10.3472920000       -1.6682050000        9.9524840000
  H        11.8317140000       -1.5784870000       10.4537430000
  O         7.3126780000       27.1559620000        7.1511760000
  H         7.9325080000       27.9084030000        7.3983720000
  H         7.7242600000       26.4879650000        7.7310090000
  O        -2.2589300000        0.7350090000       -0.3864490000
  H        -1.6374470000        1.4801670000       -0.2557180000
  H        -2.5229730000        1.0180670000       -1.2901810000
  O         7.0363030000       11.9608080000      -15.4159310000
  H         7.7272070000       12.6263080000      -15.1063410000
  H         7.3242240000       11.8404050000      -16.3011650000
  O         5.5925750000       -4.1266600000       -5.6358010000
  H         5.5006260000       -3.7277810000       -6.5330570000
  H         6.4819670000       -4.5366900000       -5.7543680000
  O        28.8673930000       16.1831210000      -14.1515100000
  H        28.7727810000       15.2581880000      -13.8144790000
  H        28.2544960000       16.6586570000      -13.4955100000
  O        11.6895360000       13.4282450000        3.9109020000
  H        12.6526600000       13.1664510000        4.1210690000
  H        11.1549400000       12.6192130000        3.9213410000
  O        12.3807690000        8.0699830000       -1.8841670000
  H        12.3262430000        8.0378540000       -2.8541400000
  H        11.4497430000        7.9674220000       -1.5666400000
  O         6.3648300000       15.6251860000      -15.5466480000
  H         6.0900230000       15.6368020000      -14.5904970000
  H         6.3148280000       16.5947020000      -15.7152140000
  O        18.0865520000       -3.2266500000       -4.1946400000
  H        18.3746810000       -4.0531020000       -4.6182750000
  H        17.3715840000       -2.9710980000       -4.8466310000
  O        25.3114600000        7.0031540000      -13.8516670000
  H        25.7230210000        7.1338520000      -12.9783040000
  H        24.5470600000        6.4072900000      -13.5533280000
  O         9.3346470000       18.5851820000       -1.0802540000
  H         9.3271800000       17.6482850000       -1.0113570000
  H        10.2890830000       18.7518250000       -1.2488400000
  O        24.1650620000       -4.6279130000       -8.2227330000
  H        24.7077830000       -5.3330710000       -8.7228070000
  H        23.5512500000       -5.1872880000       -7.7257910000
  O        13.2445280000       17.7995550000       -9.5394100000
  H        13.7602610000       18.4715040000       -8.9958890000
  H        12.7383410000       18.4221900000      -10.1219370000
  O        19.1311240000       12.4017860000        9.2179260000
  H        18.6233830000       11.5927910000        9.0741300000
  H        20.0359550000       11.9225020000        9.3178530000
  O         9.8168760000       11.0065490000       12.7856630000
  H        10.2910320000       10.6123040000       13.5696660000
  H        10.0936790000       10.4819140000       12.0231990000
  O         9.6933840000        1.2166520000        4.7921760000
  H         9.9106290000        1.9320380000        4.0878070000
  H         8.8051700000        1.6332540000        5.1098440000
  O        19.5210130000       12.3917530000        6.3599200000
  H        19.9308490000       12.5340010000        7.2330940000
  H        20.2710210000       12.2346460000        5.7394800000
  O        22.7114830000       18.2286700000        8.4653300000
  H        21.8988910000       18.5695110000        8.8971470000
  H        22.8412950000       19.0051880000        7.8404370000
  O         6.6638850000        7.2535390000       -3.0338510000
  H         7.2918120000        6.8576690000       -3.6732370000
  H         7.0146230000        8.1773290000       -2.9661970000
  O         3.8028700000       -0.0924690000        5.5584430000
  H         4.0874560000        0.6747630000        5.0110200000
  H         3.0175700000       -0.3809200000        5.0095650000
  O        -0.6455620000        2.1818280000        5.7312520000
  H        -0.1554790000        1.4335360000        5.4011580000
  H        -0.4575630000        2.1042370000        6.6658170000
  O         4.7280890000       -4.0002980000        1.0445250000
  H         4.2486940000       -3.4950780000        1.7734640000
  H         5.6352110000       -3.7583320000        1.2619070000
  O        15.7526690000       17.0920140000        8.6295100000
  H        15.5875640000       16.6142460000        7.7102490000
  H        16.5008130000       16.5629860000        8.9517370000
  O        17.2608700000       22.9381010000      -15.4623470000
  H        17.2135940000       22.1909330000      -14.8334390000
  H        16.3725150000       23.3813230000      -15.2520930000
  O         6.6893550000        0.6654980000       -6.3410390000
  H         7.0427190000        1.4282720000       -6.9559140000
  H         6.9078610000        1.1082070000       -5.4642470000
  O        16.2332520000       25.9641800000       -1.4513040000
  H        15.4241670000       -5.4755750000       -1.3459820000
  H        16.1408790000       25.4544510000       -0.6329210000
  O        11.8263620000       21.2586380000       -2.2715070000
  H        11.3555290000       21.9847130000       -1.8863470000
  H        12.6110480000       21.6962830000       -2.6530950000
  O         7.2367860000        1.3963810000        8.7492250000
  H         7.3878010000        1.4863860000        7.8146620000
  H         6.2432360000        1.3894110000        8.7857390000
  O        19.7751480000       -8.4467270000        0.4278520000
  H        19.1151470000       -7.7752480000        0.6709630000
  H        19.2011600000       22.8801170000       -0.0382020000
  O         1.3577530000       12.5014630000        3.0839590000
  H         0.9936100000       11.5594970000        3.2473590000
  H         1.6293390000       12.7289750000        4.0478080000
  O         3.8802680000        4.3972210000       -4.1233290000
  H         3.0706670000        3.9700590000       -3.6881240000
  H         3.9305750000        5.1994350000       -3.6066190000
  O        14.3822880000        9.9158470000        7.0959570000
  H        14.0105550000        9.7228560000        8.0257990000
  H        15.3034250000        9.4350820000        7.2504470000
  O        13.7409530000        4.1176110000       -9.7394870000
  H        13.8475070000        3.7894020000       -8.8078030000
  H        14.1130120000        5.0384840000       -9.6348940000
  O         2.5998620000       16.8054160000      -11.7908570000
  H         2.9815790000       16.0676310000      -11.2638710000
  H         2.8682680000       16.5691170000      -12.6969310000
  O        16.6728530000        0.2556970000        3.0505460000
  H        17.4779680000        0.3499980000        2.4475430000
  H        16.6995490000        1.1656400000        3.4848800000
  O        10.0943970000       -2.0003100000       -3.9600040000
  H        10.1302460000       -1.0716740000       -3.6305210000
  H         9.6623400000       -1.8461960000       -4.8203440000
  O        15.8447990000        1.7050790000        9.1416700000
  H        15.4709190000        0.8002470000        9.2187580000
  H        16.8299880000        1.4779130000        8.9901010000
  O         5.4123390000       19.4899220000        1.0951110000
  H         5.6350290000       20.4139940000        0.8414850000
  H         4.7709670000       19.6995720000        1.8032640000
  O         5.1666420000       20.4005510000        9.3909540000
  H         6.0049710000       20.7098100000        9.7445750000
  H         4.7442290000       21.2543300000        9.2401910000
  O        15.9542440000       -0.3226830000       -8.2491490000
  H        15.8679650000       -0.2717500000       -9.2363540000
  H        16.5312160000        0.4811620000       -8.0832390000
  O         8.1539670000       28.1884940000       -4.3696150000
  H         8.8136510000       -3.1522830000       -4.5641210000
  H         7.3033320000       -3.3420290000       -4.2044480000
  O         0.1640300000       20.2284450000      -12.8441960000
  H        -0.2355040000       19.3759000000      -13.1131630000
  H        -0.1360050000       20.3771530000      -11.9535450000
  O        -4.5992500000       -5.8919220000        5.1563080000
  H        -4.1630710000       -6.7482920000        4.9044490000
  H        -5.3063000000       -5.8224030000        4.5130210000
  O         8.2299140000        9.0219340000      -14.0153930000
  H         9.2202370000        9.0034770000      -14.0224990000
  H         8.0310830000        8.2622870000      -14.5957850000
  O        20.4607090000       -0.7597400000       -0.9803210000
  H        20.4684890000       -0.3698190000       -1.8746280000
  H        19.7195700000       -1.4941560000       -1.0978910000
  O        15.8441460000        6.7718390000       -4.7803250000
  H        15.8755830000        7.7363220000       -5.0689400000
  H        15.2306430000        6.9236110000       -4.0161720000
  O        12.5751170000        5.8851780000       12.2602750000
  H        12.4939320000        4.9316290000       12.2125310000
  H        12.1427320000        6.1391860000       13.1127740000
  O        20.1800500000       -4.4848970000       -0.3847280000
  H        19.7276330000       26.7933290000       -0.8929420000
  H        19.4367030000       -4.1513540000        0.1161700000
  O        -2.1499550000        4.6384220000       -2.1838370000
  H        -1.9295530000        3.7555960000       -2.5693510000
  H        -1.2148440000        4.9990100000       -2.0503320000
  O        25.0221180000       24.2957710000       -3.8164940000
  H        24.2346970000       24.6320550000       -3.3123120000
  H        25.2739110000       25.2157150000       -4.1777530000
  O        -0.9037850000       -4.6918350000       -0.5605060000
  H        -0.3199690000       -4.1375420000       -1.1077550000
  H        -0.4747760000       -4.4589580000        0.3180800000
  O         7.3045960000        4.3237000000        2.5746010000
  H         7.1228830000        4.9077550000        1.7900910000
  H         6.9235490000        4.8519060000        3.3153670000
  O        27.5232600000        2.0512410000        3.5512970000
  H        27.6875480000        1.3028300000        2.9999410000
  H        26.6478920000        2.3500500000        3.2723890000
  O        16.7401580000        9.4123240000        3.9062350000
  H        16.9827710000        9.2035260000        2.9468050000
  H        16.9828700000        8.5924330000        4.3264320000
  O        -1.0366850000       12.3184580000       -0.3375300000
  H        -0.6867760000       12.8375960000        0.4200490000
  H        -1.3664020000       13.0509630000       -0.8874520000
  O         8.3532380000       14.3713290000        5.3993220000
  H         8.8470150000       13.5970750000        4.8820960000
  H         8.2272990000       14.0021490000        6.3051200000
  O         8.1362080000       27.5928900000       -8.6273010000
  H         8.0196380000       28.4728780000       -8.9347560000
  H         8.9780580000       27.6062260000       -8.1439090000
  O        28.7313750000       23.7133140000      -11.6614000000
  H        28.9637870000       23.0845410000      -11.0291710000
  H        -3.2659670000       24.5815620000      -11.2307800000
  O        -1.8050290000       27.5573040000       -7.8525570000
  H        -2.3954850000       27.0771640000       -7.1915310000
  H        -1.4428250000       26.7460480000       -8.2631610000
  O        -0.7786290000       -0.2500120000        3.2236900000
  H        -1.5701880000        0.1852620000        3.5811240000
  H        -1.0797780000       -1.1337830000        3.4292260000
  O        12.5515060000        0.2132680000       -4.7864350000
  H        12.3463650000        0.3899080000       -5.6973420000
  H        13.4354380000       -0.2024370000       -4.7574530000
  O        12.8128400000       22.9399950000      -10.8137840000
  H        13.1202810000       22.1462860000      -11.2509780000
  H        13.1345940000       23.6267890000      -11.4432460000
  O        10.8375890000       10.0450730000        0.1165780000
  H        10.4339160000        9.2343430000       -0.1790390000
  H        10.1931530000       10.7038420000       -0.1857780000
  O        -1.5055970000       23.5712470000        6.1447910000
  H        -0.7784100000       23.8753760000        6.7427230000
  H        -1.0367950000       23.0753440000        5.4937750000
  O         5.4149560000       23.5628660000        4.3974060000
  H         6.2762330000       23.1449990000        4.2046350000
  H         5.7150120000       24.5113600000        4.4884910000
  O        22.7358950000       -1.8932630000      -13.1062610000
  H        21.8763750000       -2.1143350000      -13.4509110000
  H        22.9352800000       -1.0628320000      -13.5793490000
  O        -1.1466030000       15.9142620000       -7.7327750000
  H        -0.5362430000       15.9649590000       -6.9051530000
  H        -1.6450790000       16.7648740000       -7.5877980000
  O        22.1466870000        6.4918130000       -7.8417080000
  H        22.9588570000        6.7741620000       -7.3499670000
  H        22.5217780000        6.1616310000       -8.7009040000
  O        19.4371910000        0.3199610000      -11.1691730000
  H        18.8244290000        1.0787940000      -10.9749650000
  H        19.3071230000        0.3212630000      -12.1389350000
  O        24.9267960000       -1.5421210000       -8.6056790000
  H        24.0802250000       -1.6549490000       -9.0917720000
  H        25.1800310000       -2.5397840000       -8.5837360000
  O        10.9779080000        1.6219630000       10.0387910000
  H        10.1636090000        2.0156630000       10.3837690000
  H        10.9202430000        0.5837650000       10.0388600000
  O        19.9223960000       22.3776760000       -8.7636580000
  H        19.4986720000       22.3347910000       -9.6217000000
  H        20.6507490000       23.0194070000       -8.9625030000
  O        14.4449770000       16.9862770000      -11.9972360000
  H        13.5846670000       16.6130470000      -12.3579660000
  H        14.0725860000       17.3517070000      -11.1692280000
  O        19.4708790000        4.2330970000       11.6488890000
  H        18.8615280000        3.5201150000       11.8055760000
  H        19.8569620000        4.1064170000       10.7414160000
  O        27.6692710000       15.0962500000       -1.9333310000
  H        27.1009620000       14.7263570000       -2.7131590000
  H        27.0157570000       15.2232690000       -1.2461830000
  O         6.7243120000       -1.1975100000      -11.2529240000
  H         7.2023410000       -1.2916750000      -12.1130330000
  H         6.4664650000       -2.1512600000      -11.1642890000
  O        -4.4524310000       19.4925060000       -0.9307120000
  H        -3.5597020000       19.8589760000       -1.2465180000
  H        -4.0197000000       18.7959540000       -0.3061570000
  O        10.3527030000        2.0034370000        0.2831740000
  H        10.0334420000        2.4441710000        1.0573310000
  H        11.0051580000        2.6422880000       -0.0983800000
  O         7.3724010000        9.4500820000       -6.5882640000
  H         7.7678300000       10.0534890000       -5.9804000000
  H         6.5244830000        9.8558870000       -6.7255600000
  O        16.2235720000       20.0863080000        7.8755570000
  H        17.1153130000       20.4580960000        7.6224460000
  H        16.2465670000       19.1378670000        8.0483110000
  O         7.3771910000       13.2930000000      -11.2238040000
  H         7.1043570000       12.3196210000      -11.3330960000
  H         8.2658630000       13.2307120000      -11.6305200000