#     Step Nr.          Time[fs]        Kin.[a.u.]          Temp[K]            Pot.[a.u.]        Cons Qty[a.u.]        UsedTime[s]
         0            0.000000         3.843405441       300.000000000     -1250.953928643     -1247.110048179         0.000000000
         1            1.000000         3.670631422       286.513989582     -1250.734584416     -1247.062646741        47.503049567
         2            2.000000         3.567490178       278.463219555     -1250.625532885     -1247.055966536        11.864510968
         3            3.000000         3.637935747       283.961903258     -1250.721570843     -1247.080840346        11.961521469
         4            4.000000         3.644766999       284.495121965     -1250.675647206     -1247.027399444        11.869540349
         5            5.000000         3.772905658       294.497084576     -1250.834757356     -1247.057707638        11.947259992
         6            6.000000         3.740574680       291.973464930     -1250.774687959     -1247.029314822        11.891852580
         7            7.000000         3.746579174       292.442150423     -1250.751815499     -1246.999804759        11.944748856
         8            8.000000         3.966528227       309.610444763     -1251.022025730     -1247.049427606        11.908650711
         9            9.000000         3.886051018       303.328733650     -1250.894947814     -1247.002159422        11.275091223
        10           10.000000         3.770997125       294.348112558     -1250.783451508     -1247.005058252        11.948117234
        11           11.000000         3.749126830       292.641009672     -1250.784620325     -1247.027462038        11.917770542
        12           12.000000         3.762110829       293.654485791     -1250.774955490     -1247.004195967        11.888717845
        13           13.000000         4.012313597       313.184257408     -1251.072731018     -1247.051139939        11.273252845
        14           14.000000         4.010567394       313.047956198     -1251.049779357     -1247.029256659        11.271284141
        15           15.000000         3.890930296       303.709589453     -1250.891950984     -1246.990366193        11.274901107
        16           16.000000         3.988375086       311.315718355     -1251.092668321     -1247.092925646        11.969751276
        17           17.000000         3.957086718       308.873480465     -1251.075452450     -1247.106252059        11.909311511
        18           18.000000         3.937048076       307.309348675     -1251.048475119     -1247.098547967        11.913535677
        19           19.000000         3.843241304       299.987188157     -1250.914156896     -1247.057264566        11.980872631
        20           20.000000         3.731628583       291.275170408     -1250.807831342     -1247.061800047        12.504836097
        21           21.000000         3.975692317       310.325754953     -1251.187743999     -1247.196897113        12.575615562
        22           22.000000         4.055248170       316.535548894     -1251.180599129     -1247.109388964        12.512128957
        23           23.000000         3.936267759       307.248440377     -1251.039580020     -1247.086507503        13.157433413
        24           24.000000         3.896484215       304.143104965     -1250.993451159     -1247.079314479        12.492011346
        25           25.000000         3.787298671       295.620542418     -1250.867789163     -1247.061996896        12.508936130
        26           26.000000         3.885168039       303.259812031     -1250.979395970     -1247.074899822        11.922337204
        27           27.000000         3.896090181       304.112348295     -1250.991962554     -1247.075690986        11.943420567
        28           28.000000         3.712146246       289.754461446     -1250.764133889     -1247.030965641        11.874297641
        29           29.000000         3.834537301       299.307790380     -1250.932233308     -1247.075857881        11.906590283
        30           30.000000         3.917149686       305.756164378     -1251.016100810     -1247.076276748        11.866504148
        31           31.000000         3.906595208       304.932326389     -1250.986405274     -1247.056278359        11.904628254
        32           32.000000         3.859878128       301.285788358     -1250.947083552     -1247.062810114        11.875699870
        33           33.000000         3.645504476       284.552686299     -1250.675000645     -1247.004266343        11.906634487
        34           34.000000         3.747871158       292.542997196     -1250.801667569     -1247.027774526        11.872299872
        35           35.000000         3.898440623       304.295813904     -1250.987392035     -1247.062127419        11.240698390
        36           36.000000         3.818253625       298.036755419     -1250.849778835     -1247.003885773        11.278526731
        37           37.000000         3.863696774       301.583855741     -1250.922415071     -1247.030268268        11.239510246
        38           38.000000         3.839896002       299.726067990     -1250.895130807     -1247.025968859        11.270237595
        39           39.000000         3.879559199       302.822009661     -1250.948302373     -1247.038658011        11.858218752
        40           40.000000         3.944180438       307.866070718     -1250.969499573     -1246.994394917        11.863224827
        41           41.000000         3.722405396       290.555247396     -1250.682401094     -1246.928235587        11.867136292
        42           42.000000         3.734498244       291.499164035     -1250.737631064     -1246.970576762        11.912996262
        43           43.000000         3.885129763       303.256824353     -1250.893758093     -1246.975276386        11.855660163
        44           44.000000         3.917904611       305.815090622     -1250.877096144     -1246.925018252        11.843083002
        45           45.000000         3.974732076       310.250802556     -1250.967747236     -1246.957994364        11.880309008
        46           46.000000         3.814044176       297.708183635     -1250.724424410     -1246.874501249        11.896036252
        47           47.000000         3.794607181       296.191013856     -1250.701250951     -1246.869927881        11.837886117
        48           48.000000         3.937784876       307.366860163     -1250.955315983     -1246.979969577        11.873030610
        49           49.000000         3.800098545       296.619646524     -1250.807065865     -1246.968546826        11.866011143
        50           50.000000         3.766655413       294.009216861     -1250.741854927     -1246.935944140        11.843524277
        51           51.000000         3.810951049       297.466747202     -1250.826967660     -1246.975937570        11.883796394
        52           52.000000         3.874454921       302.423591307     -1250.892875211     -1246.977511017        12.489539579
        53           53.000000         4.040871243       315.413346649     -1251.092857642     -1247.010212009        11.843275107
        54           54.000000         3.869638346       302.047629756     -1250.873695341     -1246.961385409        11.859169379
        55           55.000000         3.734054540       291.464530402     -1250.751858692     -1246.974263046        11.821494997
        56           56.000000         3.852837424       300.736220741     -1250.922412356     -1247.025180716        11.895733453
        57           57.000000         3.828992061       298.874952408     -1250.866323039     -1246.992073727        11.847984202
        58           58.000000         3.859339989       301.243783487     -1250.901723427     -1246.996263051        11.880014494
        59           59.000000         3.788603343       295.722379603     -1250.814835809     -1246.979251918        11.877154708
        60           60.000000         3.738951997       291.846805158     -1250.749636603     -1246.962866757        11.847061016
        61           61.000000         3.947818250       308.150022919     -1251.022414687     -1247.025937129        11.863854796
        62           62.000000         3.873596764       302.356607145     -1250.930085684     -1247.006958492        11.849023834
        63           63.000000         3.725457937       290.793515862     -1250.757085721     -1246.981245881        11.868397154
        64           64.000000         3.731149411       291.237768261     -1250.780723602     -1246.998375080        11.826933220
        65           65.000000         3.722171883       290.537020355     -1250.730033578     -1246.955866977        11.848862045
        66           66.000000         3.895588918       304.073221827     -1250.934679638     -1246.986301510        11.820558108
        67           67.000000         3.879105667       302.786608907     -1250.932007280     -1246.999294851        11.231235929
        68           68.000000         3.719530759       290.330865325     -1250.713821304     -1246.939880270        11.858003400
        69           69.000000         3.838895397       299.647965016     -1250.886236017     -1246.992147759        11.815362148
        70           70.000000         3.862503229       301.490692626     -1250.902180888     -1246.983689732        11.901790328
        71           71.000000         3.849583453       300.482229473     -1250.885640833     -1246.979269416        11.853560619
        72           72.000000         3.814370885       297.733685096     -1250.858491941     -1246.986536400        11.895809546
        73           73.000000         3.684203329       287.573355348     -1250.678040687     -1246.935480148        11.867493197
        74           74.000000         3.872947043       302.305892687     -1250.874573339     -1246.942513143        11.848814093
        75           75.000000         3.974085412       310.200326737     -1250.987816626     -1246.953828180        11.860231541
        76           76.000000         3.847140765       300.291563553     -1250.811291364     -1246.903438556        11.838668436
        77           77.000000         3.846732828       300.259721720     -1250.833478670     -1246.925232919        11.873683035
        78           78.000000         3.788256031       295.695269917     -1250.750459464     -1246.899895448        11.862608373
        79           79.000000         3.855125960       300.914854232     -1250.839671666     -1246.921448552        11.850475214
        80           80.000000         3.896606864       304.152678395     -1250.914325392     -1246.953818149        11.854436569
        81           81.000000         3.711631309       289.714267661     -1250.676284617     -1246.899958478        11.882301807
        82           82.000000         3.786879838       295.587850049     -1250.785602863     -1246.933263517        11.873934805
        83           83.000000         3.885909711       303.317703819     -1250.918178291     -1246.966036114        11.851785809
        84           84.000000         3.854162053       300.839615682     -1250.858275131     -1246.937094428        11.907707796
        85           85.000000         3.859451359       301.252476605     -1250.895527862     -1246.968270047        11.854821905
        86           86.000000         3.716293565       290.078183652     -1250.713595181     -1246.928720666        11.856691897
        87           87.000000         3.775932875       294.733376359     -1250.750634747     -1246.905373671        11.858781211
        88           88.000000         3.901772119       304.555856371     -1250.875070453     -1246.903214926        11.888097107
        89           89.000000         3.754404554       293.052966529     -1250.697519887     -1246.872272740        11.850799918
        90           90.000000         3.750344682       292.736070033     -1250.722195538     -1246.900276721        11.858202189
        91           91.000000         3.764004180       293.802272788     -1250.771580006     -1246.935285717        11.861752331
        92           92.000000         3.778294079       294.917681991     -1250.772113678     -1246.920825146        11.888532124
        93           93.000000         3.858015792       301.140422284     -1250.895564882     -1246.963851532        11.891728409
        94           94.000000         3.688722957       287.926138445     -1250.680343798     -1246.917230281        11.838467143
        95           95.000000         3.673042308       286.702173178     -1250.635714236     -1246.887630070        11.879280202
        96           96.000000         3.818391631       298.047527609     -1250.827985900     -1246.933917739        11.873454243
        97           97.000000         3.785757644       295.500256322     -1250.743320015     -1246.881249566        11.863259397
        98           98.000000         3.794526272       296.184698438     -1250.851715817     -1246.980251490        11.909147426
        99           99.000000         3.706832348       289.339681012     -1250.748692942     -1246.964314305        11.881793097
       100          100.000000         3.686300426       287.737045897     -1250.668606784     -1246.904183975        11.888007864
       101          101.000000         3.846223089       300.219933685     -1250.881827848     -1246.956920551        11.839190535
       102          102.000000         3.740890766       291.998137274     -1250.775134747     -1246.954998414        12.469230637
       103          103.000000         3.677704588       287.066091052     -1250.690723381     -1246.933241740        11.861627989
       104          104.000000         3.751944128       292.860916100     -1250.762405610     -1246.930179646        11.839547992
       105          105.000000         3.775892028       294.730188041     -1250.788301431     -1246.931633880        11.904648766
       106          106.000000         3.901095484       304.503041119     -1250.980501756     -1246.998136860        11.826487556
       107          107.000000         3.800365965       296.640520181     -1250.862069181     -1246.979931033        11.869296871
       108          108.000000         3.689117744       287.956953812     -1250.734987125     -1246.963615405        11.845547780
       109          109.000000         3.841992189       299.889687499     -1250.928999116     -1247.004290946        11.917126305
       110          110.000000         3.842749264       299.948781537     -1250.834750536     -1246.908816403        11.827522404
       111          111.000000         3.823863297       298.474622727     -1250.825282134     -1246.917765290        11.895107865
       112          112.000000         3.810203884       297.408426620     -1250.830039456     -1246.935717528        11.823840201
       113          113.000000         3.772087464       294.433219796     -1250.753215215     -1246.896553920        11.816220313
       114          114.000000         3.941582553       307.663290785     -1250.960774197     -1246.934161586        11.846488513
       115          115.000000         3.913454576       305.467739671     -1250.905234791     -1246.906268860        11.232032992
       116          116.000000         3.773952817       294.578821388     -1250.736555243     -1246.876606999        11.839766264
       117          117.000000         3.826048130       298.645161528     -1250.850511172     -1246.937996194        11.873036154
       118          118.000000         3.814991711       297.782144222     -1250.798145530     -1246.896216117        11.884404905
       119          119.000000         3.896340812       304.131911540     -1250.879474122     -1246.895721841        11.836435609
       120          120.000000         3.884906926       303.239430671     -1250.869756940     -1246.896950081        11.890438817
       121          121.000000         3.727072967       290.919578233     -1250.714390170     -1246.898932701        11.850804940
       122          122.000000         3.836081478       299.428322337     -1250.849311681     -1246.924378504        12.497799985
       123          123.000000         3.881498875       302.973412586     -1250.869271869     -1246.898445393        12.461191677
       124          124.000000         3.822759766       298.388485771     -1250.795626629     -1246.883056907        11.832555659
       125          125.000000         3.812607461       297.596039730     -1250.780422317     -1246.877527424        11.931855492
       126          126.000000         3.733893304       291.451944971     -1250.660167784     -1246.835520488        12.467415452
       127          127.000000         3.861138382       301.384158443     -1250.823179734     -1246.870832051        11.865344658
       128          128.000000         3.925083669       306.375457560     -1250.925135473     -1246.908371236        11.831268594
       129          129.000000         3.754574769       293.066252831     -1250.699170016     -1246.852436892        11.836562552
       130          130.000000         3.766803445       294.020771621     -1250.751672964     -1246.892253575        11.928889118
       131          131.000000         3.782865960       295.274543699     -1250.743480926     -1246.867552104        11.859944485
       132          132.000000         3.812724468       297.605172745     -1250.773852462     -1246.867624539        11.815002903
       133          133.000000         3.850984855       300.591617001     -1250.849590625     -1246.904661044        11.828701042
       134          134.000000         3.694932173       288.410803593     -1250.643461081     -1246.854150266        11.817127578
       135          135.000000         3.744172886       292.254325729     -1250.687427593     -1246.848469543        11.839030512
       136          136.000000         3.866017408       301.764994601     -1250.834707810     -1246.873504599        11.842522860
       137          137.000000         3.795764111       296.281318893     -1250.719768403     -1246.828412741        11.864759728
       138          138.000000         3.776327560       294.764183790     -1250.744209237     -1246.871894575        11.224650092
       139          139.000000         3.690319822       288.050782974     -1250.638874940     -1246.852189920        11.817311540
       140          140.000000         3.733447523       291.417149225     -1250.681292112     -1246.851127436        11.261555821
       141          141.000000         3.868860551       301.986918368     -1250.835561325     -1246.869640126        11.836452067
       142          142.000000         3.754213377       293.038044097     -1250.662372587     -1246.810752682        11.865900762
       143          143.000000         3.715190537       289.992085927     -1250.629376691     -1246.816453672        11.843771294
       144          144.000000         3.755729679       293.156400219     -1250.747282274     -1246.893514676        11.880861521
       145          145.000000         3.749934878       292.704082533     -1250.721208952     -1246.872945144        11.892034225
       146          146.000000         3.812457757       297.584354438     -1250.820887332     -1246.909821838        11.834685303
       147          147.000000         3.688557783       287.913245658     -1250.670845536     -1246.883411693        11.871698976
       148          148.000000         3.656536386       285.413790628     -1250.613703051     -1246.858053136        11.861622036
       149          149.000000         3.810182457       297.406754150     -1250.813307214     -1246.903799782        11.883184500
       150          150.000000         3.776756670       294.797678314     -1250.699064367     -1246.822777055        11.827241465
       151          151.000000         3.768462935       294.150304378     -1250.695128818     -1246.826941342        11.872523613
       152          152.000000         3.736552165       291.659484424     -1250.635070901     -1246.798614771        11.871787757
       153          153.000000         3.711864841       289.732496157     -1250.588594975     -1246.776667003        11.886387505
       154          154.000000         3.862160164       301.463914458     -1250.784999089     -1246.822634135        11.883415289
       155          155.000000         3.808645740       297.286804487     -1250.718426938     -1246.809432790        11.926783308
       156          156.000000         3.743574005       292.207579598     -1250.636319638     -1246.792261475        11.938364252
       157          157.000000         3.837241527       299.518870907     -1250.762805065     -1246.824957587        11.899378359
       158          158.000000         3.846917940       300.274170790     -1250.754045952     -1246.806400598        11.851153396
       159          159.000000         3.915070793       305.593894722     -1250.872456360     -1246.856531885        11.849618740
       160          160.000000         3.854589676       300.872994099     -1250.802783046     -1246.847200598        11.926544331
       161          161.000000         3.742055413       292.089044723     -1250.648299152     -1246.805112404        11.900761299
       162          162.000000         3.883022699       303.092355855     -1250.827666125     -1246.843385312        11.870743260
       163          163.000000         3.893108901       303.879642153     -1250.885564888     -1246.891062273        11.871895142
       164          164.000000         3.829070327       298.881061533     -1250.790331261     -1246.859722724        11.880836286
       165          165.000000         3.821278958       298.272900105     -1250.797107584     -1246.874146901        11.884596579
       166          166.000000         3.764543678       293.844383706     -1250.707423830     -1246.841059873        11.252193034
       167          167.000000         3.881901686       303.004854298     -1250.861667441     -1246.877815438        11.854103327
       168          168.000000         3.887411164       303.434900925     -1250.884444662     -1246.894944290        11.857179284
       169          169.000000         3.751548012       292.829996905     -1250.719346072     -1246.865565123        11.850195251
       170          170.000000         3.808530870       297.277838252     -1250.805192890     -1246.894298288        11.882758439
       171          171.000000         3.830457569       298.989343778     -1250.820454481     -1246.887506983        11.837260917
       172          172.000000         3.861868429       301.441142836     -1250.854630859     -1246.890145944        11.873208664
       173          173.000000         3.865431139       301.719232918     -1250.864068697     -1246.895889024        11.872844003
       174          174.000000         3.737451837       291.729709067     -1250.683599429     -1246.843266015        11.894317992
       175          175.000000         3.823105045       298.415436798     -1250.809082989     -1246.882977786        11.852864049
       176          176.000000         3.899490753       304.377782622     -1250.882093027     -1246.879483414        11.894751444
       177          177.000000         3.839991446       299.733517955     -1250.800385266     -1246.857146188        11.869995348
       178          178.000000         3.875883555       302.535104429     -1250.861597567     -1246.882334164        11.863557689
       179          179.000000         3.853361892       300.777158464     -1250.859765471     -1246.902883997        11.961209923
       180          180.000000         3.921537748       306.098677966     -1250.925678442     -1246.900473812        11.876977727
       181          181.000000         3.986087666       311.137171946     -1251.019285613     -1246.929362554        11.859429367
       182          182.000000         3.844035577       300.049185754     -1250.834275864     -1246.886211227        11.893776566
       183          183.000000         3.857033640       301.063759616     -1250.867274225     -1246.906013523        11.877226479
       184          184.000000         3.903502439       304.690917901     -1250.903780400     -1246.895844133        11.848313011
       185          185.000000         3.898823929       304.325733162     -1250.884174418     -1246.880693998        11.855070174
       186          186.000000         3.943672135       307.826394692     -1250.943439299     -1246.894869985        11.847105108
       187          187.000000         3.839732136       299.713277280     -1250.831491018     -1246.886601689        11.841671675
       188          188.000000         3.859031809       301.219728247     -1250.855816957     -1246.891363399        11.898274519
       189          189.000000         3.965959263       309.566033811     -1250.960343838     -1246.888683198        11.851847842
       190          190.000000         3.868675656       301.972486232     -1250.827859903     -1246.853177537        11.909640282
       191          191.000000         3.837145529       299.511377693     -1250.830668941     -1246.887203526        11.905956894
       192          192.000000         3.825970075       298.639068915     -1250.807777884     -1246.875170911        11.904177472
       193          193.000000         3.835155104       299.356013487     -1250.807826296     -1246.865713859        11.861144789
       194          194.000000         3.938353937       307.411278622     -1250.948977018     -1246.903333115        11.866686583
       195          195.000000         3.832233249       299.127945865     -1250.829292549     -1246.889415893        11.900311589
       196          196.000000         3.785004996       295.441507798     -1250.770479863     -1246.877478314        11.884500802
       197          197.000000         3.876148320       302.555770884     -1250.873597122     -1246.889097706        11.852046065
       198          198.000000         3.872809503       302.295156891     -1250.844342346     -1246.862811121        12.587151773
       199          199.000000         3.902116651       304.582749094     -1250.896091505     -1246.884866243        12.576599360
       200          200.000000         3.842549708       299.933205041     -1250.826790186     -1246.874728287        11.861822724
       201          201.000000         3.829985384       298.952486987     -1250.808856979     -1246.868949589        11.947018221
       202          202.000000         3.966723311       309.625672186     -1250.973637067     -1246.896564765        11.868019149
       203          203.000000         3.916066066       305.671581518     -1250.917425180     -1246.890548047        11.870918758
       204          204.000000         3.851650633       300.643584866     -1250.854219213     -1246.891277212        12.507481515
       205          205.000000         3.862713599       301.507113270     -1250.845507916     -1246.871011297        11.867552117
       206          206.000000         3.861106572       301.381675522     -1250.834289289     -1246.860892412        11.863512419
       207          207.000000         3.988905874       311.357149399     -1251.000167301     -1246.898436408        11.899764262
       208          208.000000         3.963691622       309.389031347     -1250.975052602     -1246.897955254        11.866208985
       209          209.000000         3.872459079       302.267804265     -1250.864804628     -1246.878331032        11.961315863
       210          210.000000         3.964298739       309.436420377     -1250.999312156     -1246.920364741        11.894795790
       211          211.000000         3.972608820       310.085070198     -1250.985097656     -1246.897159646        11.917955369
       212          212.000000         3.970761413       309.940869369     -1250.975044111     -1246.888229465        11.913048357
       213          213.000000         3.927486742       306.563031327     -1250.935252184     -1246.890949720        11.891412377
       214          214.000000         3.824502530       298.524518584     -1250.797812202     -1246.855712052        11.887828231
       215          215.000000         3.939200093       307.477326033     -1250.956369856     -1246.898768457        11.905361652
       216          216.000000         3.990036423       311.445395296     -1250.992508401     -1246.883211961        11.252892077
       217          217.000000         3.903297454       304.674917582     -1250.877260981     -1246.853801567        11.885921374
       218          218.000000         3.876525956       302.585247521     -1250.863735024     -1246.866123041        11.932116114
       219          219.000000         3.826389515       298.671808653     -1250.819951608     -1246.871533275        11.933531441
       220          220.000000         3.901653197       304.546573882     -1250.908703814     -1246.884053722        11.868689857
       221          221.000000         3.936801506       307.290102424     -1250.972426678     -1246.911612298        11.922523335
       222          222.000000         3.810066134       297.397674418     -1250.785999862     -1246.850878450        11.902152956
       223          223.000000         3.847702935       300.335444243     -1250.837712090     -1246.863901871        11.924069263
       224          224.000000         3.900649516       304.468230790     -1250.901833242     -1246.873986097        11.865333192
       225          225.000000         3.901594716       304.542009088     -1250.908537979     -1246.878612153        11.885911398
       226          226.000000         3.894270419       303.970305414     -1250.893023085     -1246.869251514        11.887850136
       227          227.000000         3.774775309       294.643021646     -1250.712526241     -1246.807065462        11.868564226