#     Step Nr.          Time[fs]        Kin.[a.u.]          Temp[K]            Pot.[a.u.]        Cons Qty[a.u.]        UsedTime[s]
         0            0.000000         3.844830508       300.000000000     -1659.031879611     -1655.186574080         0.000000000
         1            1.000000         3.784206476       295.269697954     -1658.992270371     -1655.206742379        44.536970360
         2            2.000000         3.548400229       276.870480087     -1658.709469705     -1655.158949782        12.410940135
         3            3.000000         3.563447852       278.044598693     -1658.710301768     -1655.144009347        12.377883764
         4            4.000000         3.843853697       299.923782479     -1659.024536798     -1655.177131525        12.400854364
         5            5.000000         3.760157473       293.393230037     -1658.897636416     -1655.133210413        12.421217119
         6            6.000000         3.613419162       281.943702377     -1658.695279000     -1655.076913606        12.424690877
         7            7.000000         3.708652101       289.374428276     -1658.809828511     -1655.095595672        12.415956076
         8            8.000000         3.794190249       296.048700233     -1658.874060064     -1655.073665516        12.391983026
         9            9.000000         3.941321377       307.528878230     -1659.067337860     -1655.119177685        12.443166385
        10           10.000000         3.700786588       288.760707143     -1658.873717717     -1655.165455747        12.436230463
        11           11.000000         3.503264946       273.348716273     -1658.667731292     -1655.156416372        13.111952275
        12           12.000000         3.739284229       291.764556669     -1658.952472439     -1655.204615142        12.410757819
        13           13.000000         3.865637641       301.623514919     -1658.979697217     -1655.104960263        12.382894567
        14           14.000000         3.828806895       298.749728014     -1658.947680870     -1655.109241833        13.060137589
        15           15.000000         3.736635781       291.557906613     -1658.938596535     -1655.191808893        12.410874573
        16           16.000000         3.650097739       284.805616112     -1658.820900775     -1655.160164018        12.421655118
        17           17.000000         3.935623037       307.084254733     -1659.172442230     -1655.225708977        13.106593688
        18           18.000000         3.897258816       304.090815509     -1659.144142070     -1655.235275781        13.054184777
        19           19.000000         3.655404302       285.219670500     -1658.801264971     -1655.133767896        13.073791136
        20           20.000000         3.685452492       287.564235966     -1658.843636277     -1655.145648717        12.407383296
        21           21.000000         3.806663938       297.021982860     -1658.948479193     -1655.128857228        12.426468912
        22           22.000000         3.978088076       310.397667811     -1659.169662495     -1655.178182773        13.115810596
        23           23.000000         3.939547574       307.390473943     -1659.186816328     -1655.233413623        13.099673253
        24           24.000000         3.640660753       284.069277823     -1658.816156827     -1655.161184277        13.131700236
        25           25.000000         3.788950042       295.639823399     -1658.988136986     -1655.184455867        13.090479782
        26           26.000000         3.909417781       305.039541209     -1659.120560851     -1655.195988715        12.436108871
        27           27.000000         3.841720592       299.757343064     -1659.075795164     -1655.218485161        12.394346756
        28           28.000000         3.759147959       293.314460874     -1659.011552344     -1655.236388647        12.403064159
        29           29.000000         3.693555174       288.196462698     -1658.946953277     -1655.236979861        13.098814155
        30           30.000000         3.893286674       303.780881779     -1659.282843696     -1655.372751781        13.100172694
        31           31.000000         4.030867507       314.515880373     -1659.386004969     -1655.337918739        13.104601849
        32           32.000000         3.722045652       290.419484855     -1659.025574069     -1655.285878291        13.111033377
        33           33.000000         3.674023389       286.672459079     -1658.995883407     -1655.303814798        13.064988839
        34           34.000000         3.753681064       292.887896315     -1659.105526651     -1655.333432838        13.098090296
        35           35.000000         3.899818952       304.290574889     -1659.298440645     -1655.379845903        12.424629189
        36           36.000000         3.940338399       307.452179542     -1659.373197957     -1655.413702498        12.412210330
        37           37.000000         3.726032526       290.730568062     -1659.092063163     -1655.346487208        13.054972300
        38           38.000000         3.761313639       293.483442055     -1659.116272757     -1655.335054558        12.392970637
        39           39.000000         4.003086175       312.348190655     -1659.407053453     -1655.383698886        13.079372831
        40           40.000000         3.873194444       302.213148424     -1659.231641718     -1655.337786089        13.112839645
        41           41.000000         3.769728720       294.140044280     -1659.108864784     -1655.318086315        13.053341612
        42           42.000000         3.631625657       283.364297795     -1658.959795514     -1655.306757992        13.097871530
        43           43.000000         3.750480203       292.638143214     -1659.105608299     -1655.333389096        13.109931329
        44           44.000000         3.982524671       310.743841282     -1659.443868855     -1655.439277499        13.048628685
        45           45.000000         3.822907433       298.289411592     -1659.207582257     -1655.362258453        13.106083941
        46           46.000000         3.657825133       285.408560246     -1658.980123942     -1655.299550485        13.102887555
        47           47.000000         3.776114946       294.638341389     -1659.086392596     -1655.287227942        13.067296104
        48           48.000000         3.813526040       297.557411083     -1659.135726180     -1655.298857221        13.076952713
        49           49.000000         3.886063587       303.217287117     -1659.269367758     -1655.359668164        13.086094713
        50           50.000000         3.677870893       286.972667723     -1659.008088324     -1655.306291197        13.061840695
        51           51.000000         3.638891202       283.931205365     -1658.925452065     -1655.262380688        13.128656368
        52           52.000000         3.907213437       304.867543196     -1659.324799243     -1655.393175865        13.125530421
        53           53.000000         3.941315397       307.528411600     -1659.339592247     -1655.373620113        13.106044700
        54           54.000000         3.808313678       297.150706868     -1659.176346976     -1655.343116687        13.102154701
        55           55.000000         3.768876122       294.073518730     -1659.097593151     -1655.303550145        13.108843687
        56           56.000000         3.764844082       293.758911393     -1659.043350033     -1655.253103241        13.105577087
        57           57.000000         4.015573070       313.322503645     -1659.376983815     -1655.335773132        13.086885083
        58           58.000000         3.925220533       306.272580092     -1659.166988113     -1655.215862813        13.111814998
        59           59.000000         3.750046514       292.604303791     -1658.901102745     -1655.124878023        13.120168320
        60           60.000000         3.868572754       301.852532533     -1659.137037124     -1655.242025034        13.083217586
        61           61.000000         3.984878608       310.927511587     -1659.304203073     -1655.292609780        13.097190085
        62           62.000000         4.010272383       312.908907759     -1659.382259351     -1655.344963821        13.794218910
        63           63.000000         3.902943393       304.534365106     -1659.294639409     -1655.364335435        13.106416489
        64           64.000000         3.702845575       288.921363375     -1659.008480983     -1655.277939479        13.780663232
        65           65.000000         3.940136959       307.436461821     -1659.329903942     -1655.361749772        13.779985909
        66           66.000000         4.028523241       314.332964681     -1659.373942026     -1655.317048777        13.088532478
        67           67.000000         3.885269319       303.155312839     -1659.237433741     -1655.323410389        13.795034863
        68           68.000000         3.804725321       296.870718741     -1659.196843772     -1655.362979371        13.769663921
        69           69.000000         3.780216359       294.958361725     -1659.156245831     -1655.346514971        13.819473331
        70           70.000000         3.924479162       306.214733252     -1659.323408365     -1655.369039878        13.802012021
        71           71.000000         3.965006251       309.376934261     -1659.390769377     -1655.395473981        13.769796524
        72           72.000000         3.675552294       286.791754776     -1659.004325941     -1655.298079215        13.116161746
        73           73.000000         3.720584892       290.305506354     -1659.018713361     -1655.267063941        13.090234914
        74           74.000000         3.837327771       299.414585041     -1659.220935556     -1655.352185427        13.114128376
        75           75.000000         3.893384407       303.788507642     -1659.277987756     -1655.352815630        13.787627686
        76           76.000000         3.860930645       301.256242911     -1659.268838987     -1655.375744185        13.819500295
        77           77.000000         3.705554134       289.132703725     -1659.152784208     -1655.414695935        13.843710598
        78           78.000000         3.798693365       296.400064200     -1659.360272146     -1655.528696497        15.852360942
        79           79.000000         3.999642118       312.079461687     -1659.604213995     -1655.571331825        15.176659387
        80           80.000000         3.832271142       299.020032225     -1659.389167321     -1655.523272229        15.211290821
        81           81.000000         3.779175834       294.877172816     -1659.319091881     -1655.505915868        13.786735085
        82           82.000000         3.775793046       294.613224562     -1659.243863687     -1655.433706020        13.816700998
        83           83.000000         3.918939764       305.782511543     -1659.341390983     -1655.387722830        13.833059476
        84           84.000000         4.034973003       314.836219240     -1659.503176798     -1655.433081768        13.096811534
        85           85.000000         3.827362242       298.637006236     -1659.217991709     -1655.355084843        13.835882863
        86           86.000000         3.754874707       292.981032465     -1659.134459932     -1655.343629801        13.789716189
        87           87.000000         3.948952435       308.124305589     -1659.394071534     -1655.408754339        13.754583691
        88           88.000000         3.938349111       307.296961626     -1659.352097229     -1655.376944743        13.812714266
        89           89.000000         3.932157952       306.813885027     -1659.366506463     -1655.397084496        13.815753446
        90           90.000000         3.765575760       293.816001908     -1659.176056584     -1655.372748980        13.080376072
        91           91.000000         3.789389578       295.674119005     -1659.184692230     -1655.357118655        13.108765090
        92           92.000000         4.014229285       313.217652389     -1659.529493182     -1655.476614894        13.815924491
        93           93.000000         3.929435007       306.601422214     -1659.385161975     -1655.416573535        13.755955689
        94           94.000000         3.757253581       293.166648541     -1659.193072991     -1655.396158631        13.785051728
        95           95.000000         3.779395708       294.894328849     -1659.159053433     -1655.339507427        13.798559223
        96           96.000000         3.808970716       297.201973458     -1659.165891214     -1655.316285577        13.763541007
        97           97.000000         3.980431616       310.580526818     -1659.383620653     -1655.362055623        13.797401355
        98           98.000000         3.830693109       298.896903305     -1659.241567166     -1655.369216708        13.757723963
        99           99.000000         3.694485441       288.269048534     -1659.069406804     -1655.332756698        13.826586407
       100          100.000000         3.862108261       301.348128553     -1659.214629590     -1655.309864554        14.494448042
       101          101.000000         3.930184265       306.659884492     -1659.325408042     -1655.352053476        15.232757109
       102          102.000000         3.870836336       302.029152703     -1659.292380423     -1655.377840438        15.254966872
       103          103.000000         3.783599071       295.222304065     -1659.235230327     -1655.407394412        14.449842522
       104          104.000000         3.677532261       286.946245313     -1659.089734480     -1655.367452610        13.854293582
       105          105.000000         3.918244345       305.728250206     -1659.390454933     -1655.426958225        13.766028598
       106          106.000000         3.931042628       306.726859858     -1659.285263063     -1655.308433793        13.138255085
       107          107.000000         3.781535884       295.061320082     -1659.136550049     -1655.308683654        13.746832901
       108          108.000000         3.796444026       296.224555342     -1659.155290641     -1655.311984336        13.073704896
       109          109.000000         3.843809754       299.920353784     -1659.165510957     -1655.274305733        13.103644530
       110          110.000000         3.938591438       307.315869651     -1659.296744054     -1655.310206940        13.103278260
       111          111.000000         3.931170148       306.736809788     -1659.242684008     -1655.262988900        12.439121900
       112          112.000000         3.705476240       289.126625882     -1658.917932601     -1655.163351027        13.088361152
       113          113.000000         3.858903828       301.098096757     -1659.071353458     -1655.162780959        13.111449472
       114          114.000000         3.977768316       310.372717956     -1659.248914666     -1655.220885131        13.077543712
       115          115.000000         3.934823993       307.021907806     -1659.212442493     -1655.226728689        13.085104248
       116          116.000000         3.867530065       301.771174817     -1659.180514096     -1655.261449179        13.131322606
       117          117.000000         3.771143142       294.250407149     -1659.042455928     -1655.219134901        13.106792103
       118          118.000000         3.904226039       304.634445933     -1659.189369700     -1655.232320728        13.125618794
       119          119.000000         4.045446590       315.653440184     -1659.380515151     -1655.281556572        13.132778178
       120          120.000000         3.838273909       299.488409222     -1659.114862734     -1655.222352866        13.067760045
       121          121.000000         3.838474256       299.504041683     -1659.143220046     -1655.249791848        13.078269058
       122          122.000000         3.894510048       303.876337815     -1659.197887550     -1655.247690935        13.070779559
       123          123.000000         3.996678485       311.848218764     -1659.229227197     -1655.176093387        12.447612259
       124          124.000000         4.025696322       314.112389055     -1659.374924132     -1655.291950894        13.085754154
       125          125.000000         3.813802281       297.578965271     -1659.165620689     -1655.293697370        13.084967857
       126          126.000000         3.800979030       296.578407468     -1659.151397970     -1655.291468181        13.081558486
       127          127.000000         4.000469544       312.144023144     -1659.365394977     -1655.305116725        13.062878090
       128          128.000000         3.943397335       307.690858626     -1659.273356107     -1655.269239299        13.088977056
       129          129.000000         3.929198921       306.583001205     -1659.212425868     -1655.221571244        12.400441466
       130          130.000000         3.830021519       298.844501246     -1659.098325031     -1655.205697630        12.423182886
       131          131.000000         3.894696799       303.890909413     -1659.145349533     -1655.187086785        12.437053814
       132          132.000000         4.072303382       317.748990978     -1659.415958075     -1655.279071521        13.071905201
       133          133.000000         3.939964128       307.422976370     -1659.192575171     -1655.186951693        13.050651700
       134          134.000000         3.814204361       297.610338340     -1659.057522820     -1655.176583662        13.095919131
       135          135.000000         3.900854191       304.371351279     -1659.227715376     -1655.259042311        13.098511046
       136          136.000000         3.914968555       305.472650605     -1659.138050204     -1655.154139831        13.096721459
       137          137.000000         4.017716122       313.489719261     -1659.280945003     -1655.193114615        13.094768890
       138          138.000000         3.874536480       302.317863330     -1659.123719007     -1655.177856611        13.060739376
       139          139.000000         3.806780537       297.031080696     -1659.082767917     -1655.203457907        13.108329087
       140          140.000000         3.985349178       310.964228647     -1659.314529945     -1655.255414862        13.086287028
       141          141.000000         3.993519524       311.601734986     -1659.225380565     -1655.156786947        13.070767295
       142          142.000000         3.905340660       304.721416350     -1659.161871682     -1655.180115976        13.079425901
       143          143.000000         3.872981992       302.196571500     -1659.059526740     -1655.108777375        13.091607325
       144          144.000000         3.823484753       298.334458005     -1658.992740020     -1655.090126417        13.092160583
       145          145.000000         4.018755387       313.570809824     -1659.236662278     -1655.137369961        13.068908177
       146          146.000000         3.951915916       308.355536639     -1659.193691580     -1655.159759342        13.077276518
       147          147.000000         3.797459686       296.303804093     -1658.982424632     -1655.101471742        13.087941857
       148          148.000000         3.842008670       299.779820848     -1659.066867352     -1655.139894769        13.098382908
       149          149.000000         3.874836730       302.341290829     -1659.098111756     -1655.136807091        13.086309107
       150          150.000000         3.914283779       305.419219715     -1659.264244831     -1655.261949228        13.092261758
       151          151.000000         3.893491273       303.796846015     -1659.298016733     -1655.314933845        13.109333294
       152          152.000000         3.739145219       291.753710123     -1659.136961525     -1655.306654684        13.048008987
       153          153.000000         3.905597654       304.741468764     -1659.319484237     -1655.321146068        13.131177201
       154          154.000000         3.939568616       307.392115805     -1659.343638663     -1655.309680605        13.110322225
       155          155.000000         3.846081209       300.097588270     -1659.251542038     -1655.309399552        13.750123715
       156          156.000000         3.826429641       298.564238338     -1659.395011507     -1655.470851604        15.144360436
       157          157.000000         3.793919281       296.027557470     -1659.336184614     -1655.442862436        15.220939461
       158          158.000000         3.881765800       302.881944322     -1659.485475576     -1655.502610355        15.840986392
       159          159.000000         3.960298771       309.009624437     -1659.595511069     -1655.532353230        15.139328895
       160          160.000000         3.793495432       295.994485894     -1659.447448595     -1655.549318682        15.133826460
       161          161.000000         3.906309364       304.797001219     -1659.617095936     -1655.604373765        15.914547462
       162          162.000000         3.973440561       310.035036840     -1659.701668539     -1655.619965389        15.869369653
       163          163.000000         3.978871100       310.458764704     -1659.674922983     -1655.585879116        15.810170843
       164          164.000000         3.938044575       307.273199661     -1659.669173574     -1655.619010050        15.833312053
       165          165.000000         3.796624136       296.238608816     -1659.437711359     -1655.527033273        14.471397677
       166          166.000000         3.841713060       299.756755357     -1659.531627124     -1655.573937312        15.135767509
       167          167.000000         3.996692486       311.849311202     -1659.703248368     -1655.588587124        13.773251846
       168          168.000000         3.866851394       301.718220252     -1659.552994760     -1655.566136682        14.458736480
       169          169.000000         3.883113814       302.987125620     -1659.593757081     -1655.588604561        13.787227670
       170          170.000000         3.852508669       300.599102678     -1659.525696779     -1655.549100123        14.477376612
       171          171.000000         3.921023530       305.945101238     -1659.521535173     -1655.474346372        13.755893972
       172          172.000000         3.991555122       311.448458925     -1659.586495950     -1655.466632076        13.744626727
       173          173.000000         3.826464646       298.566969651     -1659.376140621     -1655.419213399        14.474662712
       174          174.000000         3.753455883       292.870326158     -1659.342784809     -1655.456768267        14.449369704
       175          175.000000         3.901740602       304.440515148     -1659.466030659     -1655.429612984        14.440258830
       176          176.000000         3.888223834       303.385844369     -1659.427326355     -1655.402255109        14.445062593
       177          177.000000         3.955444798       308.630884240     -1659.516108522     -1655.421611734        13.750085700
       178          178.000000         3.838026653       299.469116598     -1659.380528328     -1655.401234409        13.793674577
       179          179.000000         3.832708871       299.054186884     -1659.378262406     -1655.402098422        13.757065969
       180          180.000000         3.964730411       309.355411308     -1659.557695997     -1655.447280543        13.751331780
       181          181.000000         3.926711181       306.388890720     -1659.531010432     -1655.456333562        13.797939194
       182          182.000000         3.861715384       301.317473635     -1659.347625818     -1655.335675576        13.778912319
       183          183.000000         3.942690318       307.635692316     -1659.517748465     -1655.422541192        13.767525093
       184          184.000000         3.921617913       305.991479040     -1659.455430640     -1655.378979065        13.810247889
       185          185.000000         4.052357087       316.192644541     -1659.627506530     -1655.417948479        13.742784899
       186          186.000000         3.925770214       306.315469979     -1659.485938976     -1655.400566306        13.101566689
       187          187.000000         3.827468653       298.645309162     -1659.410695571     -1655.421278179        13.772280372
       188          188.000000         3.921432319       305.976997743     -1659.615718845     -1655.529997640        14.433566694
       189          189.000000         3.952169714       308.375339708     -1659.596534949     -1655.477692307        14.458108945
       190          190.000000         3.921237319       305.961782521     -1659.363495704     -1655.273190552        13.790206502
       191          191.000000         3.929420809       306.600314396     -1659.384459958     -1655.283577803        13.834076182
       192          192.000000         3.844281478       299.957160910     -1659.189295846     -1655.171180835        13.869101277
       193          193.000000         4.027933784       314.286971208     -1659.520402885     -1655.316240933        13.766481369
       194          194.000000         3.986142161       311.026102622     -1659.475613950     -1655.310789971        13.765681918
       195          195.000000         3.847216560       300.186176105     -1659.357440518     -1655.329135270        13.781182125
       196          196.000000         3.835951272       299.307181230     -1659.376577898     -1655.357192663        13.779893758
       197          197.000000         3.871158006       302.054251623     -1659.343288227     -1655.286364986        13.762778451
       198          198.000000         3.965830534       309.441250423     -1659.457367426     -1655.303416714        13.772746324
       199          199.000000         4.019202708       313.605712856     -1659.547705319     -1655.337983431        13.812426417
       200          200.000000         3.844009919       299.935972033     -1659.331248610     -1655.294353105        13.775972022
       201          201.000000         3.930946845       306.719386165     -1659.369926550     -1655.243775009        13.802116010
       202          202.000000         3.949246068       308.147216868     -1659.393552485     -1655.246764174        13.074650600
       203          203.000000         3.923286004       306.121634953     -1659.434538211     -1655.311384782        13.802423144
       204          204.000000         3.908095913       304.936400033     -1659.457959976     -1655.347698983        13.746594304
       205          205.000000         3.849536014       300.367155809     -1659.248409030     -1655.194452846        13.108905127
       206          206.000000         3.930950245       306.719651491     -1659.463318798     -1655.325716141        13.741042940
       207          207.000000         4.057871921       316.622949582     -1659.537833068     -1655.271033509        13.803853153
       208          208.000000         3.910362754       305.113274491     -1659.314737850     -1655.193178203        13.798698640
       209          209.000000         3.932101047       306.809444957     -1659.361273161     -1655.215762066        13.107637001
       210          210.000000         3.910941587       305.158438978     -1659.300464637     -1655.173921892        13.107672660
       211          211.000000         3.930402160       306.676886119     -1659.312445292     -1655.164276737        13.797607888
       212          212.000000         3.973926582       310.072959543     -1659.392275805     -1655.198423081        13.110409669
       213          213.000000         3.874019377       302.277515345     -1659.204285552     -1655.108214594        13.094036108
       214          214.000000         3.895953056       303.988931214     -1659.279750870     -1655.159675033        12.448915761
       215          215.000000         4.042587327       315.430340949     -1659.544152782     -1655.275356229        13.097312894
       216          216.000000         3.947803639       308.034668657     -1659.352267359     -1655.176163927        13.113461911
       217          217.000000         3.955233261       308.614378680     -1659.398945319     -1655.213365559        13.115052930
       218          218.000000         3.883460370       303.014166294     -1659.316563681     -1655.200751143        13.071524389
       219          219.000000         3.925952728       306.329710980     -1659.333130148     -1655.172861520        13.121430257
       220          220.000000         4.043853076       315.529103376     -1659.495622160     -1655.215476558        13.112434871
       221          221.000000         3.975580879       310.202039126     -1659.528622617     -1655.314770482        13.072307340
       222          222.000000         3.919306998       305.811165608     -1659.481936493     -1655.322429803        13.127886356
       223          223.000000         4.020300997       313.691408921     -1659.642322480     -1655.379910276        13.753381857
       224          224.000000         3.990891386       311.396669724     -1659.467386573     -1655.232469802        13.797040948
       225          225.000000         4.057757666       316.614034696     -1659.560349483     -1655.256658608        13.752313351
       226          226.000000         3.925614571       306.303325649     -1659.284717516     -1655.111286583        13.852241743
       227          227.000000         3.881448970       302.857223086     -1659.232601919     -1655.101523804        13.778879423