#     Step Nr.          Time[fs]        Kin.[a.u.]          Temp[K]            Pot.[a.u.]        Cons Qty[a.u.]        UsedTime[s]
         0            0.000000         3.847680642       300.000000000     -1487.707347251     -1483.859191587         0.000000000
         1            1.000000         3.784796720       295.097000368     -1487.620515998     -1483.834397749        51.967696182
         2            2.000000         3.750872788       292.451983656     -1487.575636199     -1483.822617659        13.367651783
         3            3.000000         3.831667657       298.751482779     -1487.678674933     -1483.844048416        11.996816933
         4            4.000000         3.814200509       297.389585873     -1487.641338834     -1483.823365096        11.992704742
         5            5.000000         3.864394345       301.303151517     -1487.703224777     -1483.834244278        12.703127794
         6            6.000000         3.870510372       301.780012327     -1487.710750698     -1483.834832955        12.657413177
         7            7.000000         3.853293667       300.437642240     -1487.670634625     -1483.811109470        12.757153414
         8            8.000000         3.956853622       308.512113390     -1487.807478962     -1483.843556187        12.760780774
         9            9.000000         3.888777561       303.204287666     -1487.710176368     -1483.813470270        11.981467225
        10           10.000000         3.816041421       297.533120014     -1487.623532086     -1483.798709925        11.961454280
        11           11.000000         3.847783548       300.008023469     -1487.674557307     -1483.817148950        12.018895321
        12           12.000000         3.825128865       298.241659421     -1487.632210512     -1483.796612996        12.721653141
        13           13.000000         3.911766131       304.996684613     -1487.742128647     -1483.819044657        12.730839118
        14           14.000000         3.914587300       305.216648455     -1487.755395026     -1483.828619838        12.689163849
        15           15.000000         3.844501172       299.752099720     -1487.644531898     -1483.786968540        12.696214810
        16           16.000000         3.946788276       307.727327954     -1487.775268065     -1483.814535797        12.655529000
        17           17.000000         3.926138908       306.117316381     -1487.733923760     -1483.792932619        12.708963796
        18           18.000000         3.884574847       302.876606039     -1487.666258105     -1483.765914467        12.691267349
        19           19.000000         3.884577402       302.876805293     -1487.692279874     -1483.791013391        12.689904429
        20           20.000000         3.837791250       299.228933493     -1487.609145079     -1483.753743694        12.746975891
        21           21.000000         3.963052975       308.995471087     -1487.749310165     -1483.767714167        11.984730355
        22           22.000000         4.004144539       312.199341253     -1487.793122608     -1483.769460508        12.011132672
        23           23.000000         3.916050109       305.330702336     -1487.675718820     -1483.739153543        12.677364811
        24           24.000000         3.948286527       307.844145161     -1487.742592670     -1483.772783268        11.943317853
        25           25.000000         3.937231644       306.982206465     -1487.700704358     -1483.740919957        12.003767692
        26           26.000000         3.975126185       309.936807756     -1487.737043484     -1483.738311515        12.019357279
        27           27.000000         3.982762844       310.532230768     -1487.751587633     -1483.744134478        11.962465011
        28           28.000000         3.857970532       300.802292934     -1487.592201103     -1483.708447784        12.670224957
        29           29.000000         3.926957828       306.181166778     -1487.696517562     -1483.742685420        12.015211359
        30           30.000000         3.981417814       310.427360100     -1487.753617360     -1483.744200765        11.956099972
        31           31.000000         3.935168571       306.821350599     -1487.683456484     -1483.719139031        12.728818893
        32           32.000000         3.945749587       307.646342365     -1487.717784167     -1483.741721841        12.630321518
        33           33.000000         3.867733897       301.563533222     -1487.602321999     -1483.703104408        12.027676091
        34           34.000000         3.928120675       306.271832854     -1487.667191995     -1483.706412368        11.941455930
        35           35.000000         4.025823698       313.889644608     -1487.792578751     -1483.732880155        11.948318958
        36           36.000000         3.920962366       305.713706336     -1487.650386860     -1483.694304269        11.934120677
        37           37.000000         3.920556380       305.682051947     -1487.653793081     -1483.696871028        12.004689798
        38           38.000000         3.938615251       307.090084958     -1487.673706223     -1483.697462888        12.667172752
        39           39.000000         3.941175106       307.289674451     -1487.663140500     -1483.683054739        11.976803839
        40           40.000000         3.993272769       311.351679643     -1487.744302142     -1483.710808209        12.652957588
        41           41.000000         3.881639324       302.647726105     -1487.584204733     -1483.661019794        11.974958614
        42           42.000000         3.887578129       303.110769069     -1487.579345683     -1483.648907286        11.950093821
        43           43.000000         4.005182496       312.280269717     -1487.717420662     -1483.668033358        12.697606049
        44           44.000000         3.976222410       310.022279353     -1487.662095255     -1483.640282001        12.055564031
        45           45.000000         3.991119309       311.183776441     -1487.712884284     -1483.674765383        12.002306305
        46           46.000000         3.939959034       307.194858482     -1487.652857463     -1483.664471585        11.938345991
        47           47.000000         3.928800134       306.324809613     -1487.619751669     -1483.641091898        11.928821400
        48           48.000000         4.035283736       314.627234781     -1487.769472842     -1483.682862893        11.981298812
        49           49.000000         3.924785373       306.011782566     -1487.613210897     -1483.635604272        12.683070958
        50           50.000000         3.863001997       301.194591467     -1487.553028526     -1483.635729786        13.034550250
        51           51.000000         3.918373418       305.511848536     -1487.634404162     -1483.660258056        12.727645002
        52           52.000000         3.921812581       305.779996806     -1487.617189335     -1483.638108657        12.631332256
        53           53.000000         4.001866193       312.021700752     -1487.725853000     -1483.665195262        12.698834345
        54           54.000000         3.926508814       306.146157586     -1487.624337112     -1483.637490297        13.424354218
        55           55.000000         3.843313901       299.659529362     -1487.534834756     -1483.629657432        12.658892088
        56           56.000000         3.960490690       308.795692173     -1487.707148530     -1483.683264361        12.704372898
        57           57.000000         3.937380753       306.993832317     -1487.658988547     -1483.656653008        12.675349519
        58           58.000000         3.901713215       304.212868314     -1487.637468853     -1483.669240308        12.738111049
        59           59.000000         3.870263512       301.760764858     -1487.617460400     -1483.679130801        12.687936820
        60           60.000000         3.802982677       296.514942214     -1487.522996867     -1483.650421156        12.620349348
        61           61.000000         3.931150709       306.508081752     -1487.687526660     -1483.685256102        12.737197883
        62           62.000000         3.922756460       305.853590087     -1487.686724517     -1483.691292808        12.697959155
        63           63.000000         3.814548587       297.416725160     -1487.567686470     -1483.678926642        11.968961969
        64           64.000000         3.854097007       300.500277860     -1487.636461971     -1483.706643511        12.700601861
        65           65.000000         3.834099431       298.941085925     -1487.597854217     -1483.686528985        12.627256200
        66           66.000000         3.872015055       301.897330995     -1487.668059310     -1483.717321749        11.963934615
        67           67.000000         3.860482531       300.998151129     -1487.667731677     -1483.727031354        11.943469234
        68           68.000000         3.741438547       291.716404885     -1487.516491148     -1483.693375176        12.704663135
        69           69.000000         3.839186133       299.337691196     -1487.654333282     -1483.732040445        13.333477423
        70           70.000000         3.883028686       302.756053380     -1487.696081510     -1483.728504052        12.678830720
        71           71.000000         3.838317802       299.269988252     -1487.632459345     -1483.708157146        13.299680673
        72           72.000000         3.848790815       300.086559109     -1487.674533036     -1483.738340456        12.685603388
        73           73.000000         3.765211905       293.569991027     -1487.559176585     -1483.705172571        12.640713975
        74           74.000000         3.838002306       299.245389377     -1487.650728606     -1483.722569979        13.365857445
        75           75.000000         3.898089194       303.930306847     -1487.723289654     -1483.733670270        13.337555252
        76           76.000000         3.781301112       294.824451156     -1487.570345398     -1483.696156666        12.625943147
        77           77.000000         3.814873635       297.442068872     -1487.635668831     -1483.726586433        12.639012285
        78           78.000000         3.808673604       296.958658305     -1487.622170282     -1483.717981697        12.721311443
        79           79.000000         3.795048659       295.896334362     -1487.598961978     -1483.707115674        12.607712686
        80           80.000000         3.821468441       297.956259602     -1487.649549786     -1483.730020670        12.691135742
        81           81.000000         3.683520210       287.200567265     -1487.465243652     -1483.682439386        13.298204266
        82           82.000000         3.715992549       289.732404659     -1487.508225570     -1483.691782366        13.371728443
        83           83.000000         3.802815184       296.501882929     -1487.625369537     -1483.720954654        13.355667181
        84           84.000000         3.730681380       290.877678825     -1487.523012423     -1483.689604402        13.301845215
        85           85.000000         3.747620844       292.198432699     -1487.569530050     -1483.718096149        13.339624591
        86           86.000000         3.693091532       287.946834096     -1487.492117891     -1483.694164703        12.616935737
        87           87.000000         3.696483789       288.211325136     -1487.495316984     -1483.692969549        12.621355399
        88           88.000000         3.796584455       296.016078853     -1487.627111131     -1483.723685070        12.630407393
        89           89.000000         3.696713787       288.229257879     -1487.484842232     -1483.680334113        12.611249611
        90           90.000000         3.708501685       289.148349086     -1487.526665703     -1483.709464923        12.658351675
        91           91.000000         3.788950497       295.420866429     -1487.624671944     -1483.726141902        12.617907688
        92           92.000000         3.789806410       295.487601202     -1487.610280887     -1483.710028306        12.736315131
        93           93.000000         3.875267776       302.150942607     -1487.728869434     -1483.742298311        12.704073191
        94           94.000000         3.805927783       296.744569291     -1487.650176660     -1483.732094642        12.621166162
        95           95.000000         3.778749536       294.625507255     -1487.613029325     -1483.721302159        12.680285625
        96           96.000000         3.913083448       305.099394607     -1487.787967408     -1483.761090669        12.673727863
        97           97.000000         3.870871934       301.808203004     -1487.712669589     -1483.727179740        12.686455496
        98           98.000000         3.876763787       302.267585114     -1487.727752463     -1483.735553714        12.667769827
        99           99.000000         3.892223440       303.472959586     -1487.751273259     -1483.742799081        12.627319932
       100          100.000000         3.877212808       302.302594921     -1487.705229690     -1483.710951757        12.672764763
       101          101.000000         3.999488327       311.836300777     -1487.860673563     -1483.743294713        12.683621265
       102          102.000000         3.916085029       305.333424956     -1487.746770190     -1483.711949319        12.634909198
       103          103.000000         3.834909706       299.004262288     -1487.645392680     -1483.690915517        12.671661906
       104          104.000000         3.932154412       306.586339489     -1487.782204927     -1483.729657852        12.683812343
       105          105.000000         3.912281329       305.036854152     -1487.736364226     -1483.702852726        11.975675806
       106          106.000000         3.944205930       307.525984898     -1487.784384954     -1483.718105823        12.638864689
       107          107.000000         3.900475306       304.116349710     -1487.737357738     -1483.713960130        12.634019926
       108          108.000000         3.808435342       296.940081290     -1487.613838000     -1483.681646876        11.912291303
       109          109.000000         3.927704716       306.239400890     -1487.765215054     -1483.712931076        12.674834564
       110          110.000000         3.902844841       304.301100121     -1487.740389663     -1483.712129808        12.667410269
       111          111.000000         3.832400644       298.808633044     -1487.654960025     -1483.696319200        12.610673465
       112          112.000000         3.867543230       301.548667083     -1487.721056958     -1483.726462889        12.623611622
       113          113.000000         3.845960739       299.865900794     -1487.661448713     -1483.687632718        11.990991607
       114          114.000000         3.959698220       308.733903970     -1487.797510505     -1483.709150231        12.638941400
       115          115.000000         3.951425559       308.088892525     -1487.784843009     -1483.703928315        12.632711187
       116          116.000000         3.810988773       297.139169855     -1487.603566891     -1483.662270323        12.630483240
       117          117.000000         3.889255402       303.241544460     -1487.720124652     -1483.699761671        11.940905377
       118          118.000000         3.897127079       303.855291666     -1487.716070286     -1483.687030687        12.626088902
       119          119.000000         3.889762325       303.281068811     -1487.697717955     -1483.675238965        12.634876654
       120          120.000000         3.903014730       304.314346206     -1487.742446694     -1483.705912006        12.587008819
       121          121.000000         3.802623808       296.486961480     -1487.612890436     -1483.675954506        12.611800224
       122          122.000000         3.915517296       305.289159385     -1487.752496383     -1483.701887616        11.983020946
       123          123.000000         3.960200252       308.773046996     -1487.781681366     -1483.685592702        13.340697587
       124          124.000000         3.809007295       296.984675903     -1487.590231898     -1483.644542734        13.303404950
       125          125.000000         3.800255651       296.302318529     -1487.594291756     -1483.656591512        13.260062598
       126          126.000000         3.770418800       293.975967638     -1487.547901936     -1483.639299520        14.021038860
       127          127.000000         3.840212287       299.417699436     -1487.626269875     -1483.647153719        13.959359668
       128          128.000000         3.910399390       304.890121083     -1487.731386974     -1483.681361426        13.985435791
       129          129.000000         3.748907303       292.298736697     -1487.520223592     -1483.630979143        14.064010695
       130          130.000000         3.771268095       294.042186411     -1487.560395286     -1483.648116131        14.031721190
       131          131.000000         3.844443268       299.747585013     -1487.644125114     -1483.658011243        12.656430498
       132          132.000000         3.831033706       298.702054227     -1487.600524387     -1483.627167015        13.266423710
       133          133.000000         3.871028720       301.820427419     -1487.669679008     -1483.655682097        13.286547966
       134          134.000000         3.771195990       294.036564408     -1487.538777704     -1483.623981397        13.298487522
       135          135.000000         3.834169488       298.946548202     -1487.614049184     -1483.635669868        13.392852120
       136          136.000000         4.002386513       312.062269625     -1487.824758611     -1483.677542660        13.315982074
       137          137.000000         3.924691198       306.004439771     -1487.712934780     -1483.642770502        12.645798519
       138          138.000000         3.912876187       305.083234634     -1487.711561633     -1483.652567287        12.644425452
       139          139.000000         3.899146894       304.012774747     -1487.690319969     -1483.644407497        12.604356594
       140          140.000000         3.909956175       304.855564104     -1487.683666552     -1483.626295342        11.952311106
       141          141.000000         4.048378892       315.648251682     -1487.860435742     -1483.663972693        12.636814155
       142          142.000000         3.953265734       308.232369158     -1487.731917386     -1483.629868508        11.928661495
       143          143.000000         3.907661948       304.676685374     -1487.678075635     -1483.620930382        12.593573086
       144          144.000000         3.997375003       311.671526960     -1487.799857827     -1483.652289177        12.564799465
       145          145.000000         3.950961843       308.052736968     -1487.717837579     -1483.615950321        12.614324912
       146          146.000000         3.970484233       309.574879151     -1487.762478188     -1483.640326256        12.627086930
       147          147.000000         3.882133895       302.686287324     -1487.665754155     -1483.631204539        12.739337273
       148          148.000000         3.785409981       295.144815764     -1487.542111179     -1483.603558309        12.571953706
       149          149.000000         3.913463641       305.129037864     -1487.716750724     -1483.649430797        12.592901379
       150          150.000000         3.889857384       303.288480466     -1487.670964504     -1483.626528060        11.961723037
       151          151.000000         3.875269354       302.151065601     -1487.654965435     -1483.624398844        11.899150915
       152          152.000000         3.909940020       304.854304475     -1487.712349266     -1483.646394938        12.646208256
       153          153.000000         3.841276623       299.500684716     -1487.610179004     -1483.612173922        12.578681305
       154          154.000000         3.919115013       305.569669974     -1487.717847778     -1483.641296618        12.602830045
       155          155.000000         3.877075434       302.291883931     -1487.666576588     -1483.631352308        12.617325649
       156          156.000000         3.787900571       295.339004683     -1487.546423064     -1483.599677752        12.663791306
       157          157.000000         3.898109288       303.931873534     -1487.694556052     -1483.636920642        12.597045936
       158          158.000000         3.896838215       303.832769209     -1487.672381352     -1483.615327924        13.255076006
       159          159.000000         3.930611936       306.466074119     -1487.712194032     -1483.620673438        13.395419106
       160          160.000000         3.961410383       308.867399717     -1487.761434750     -1483.638409144        13.282436095
       161          161.000000         3.873394577       302.004891044     -1487.634338658     -1483.598616902        13.289403372
       162          162.000000         3.963518324       309.031753874     -1487.759464802     -1483.632907010        13.373657867
       163          163.000000         3.950827617       308.042271550     -1487.746869025     -1483.632271262        13.308676705
       164          164.000000         3.863904568       301.264964067     -1487.633556280     -1483.605150861        13.333599366
       165          165.000000         3.935269270       306.829202009     -1487.743825663     -1483.643328833        12.631225415
       166          166.000000         3.903070410       304.318687533     -1487.684407713     -1483.615374084        12.607779808
       167          167.000000         3.947739702       307.801509715     -1487.740190623     -1483.625747565        12.641307473
       168          168.000000         3.969128802       309.469197490     -1487.781775820     -1483.645187433        11.933520287
       169          169.000000         3.832356473       298.805189075     -1487.602821907     -1483.602250162        11.918976948
       170          170.000000         3.901343387       304.184033201     -1487.704735714     -1483.634435892        12.642409980
       171          171.000000         3.926725806       306.163076249     -1487.735424405     -1483.638992209        12.634203166
       172          172.000000         3.872749509       301.954595684     -1487.660867622     -1483.617660566        11.861774564
       173          173.000000         3.910574598       304.903781924     -1487.731007334     -1483.649228237        11.914747730
       174          174.000000         3.829418722       298.576135423     -1487.618737553     -1483.617371819        11.948606685
       175          175.000000         3.874577428       302.097116827     -1487.675872644     -1483.628619488        11.908632569
       176          176.000000         3.940522884       307.238821263     -1487.769086949     -1483.655152943        11.914498873
       177          177.000000         3.822942473       298.071188487     -1487.611373396     -1483.614284931        11.987159342
       178          178.000000         3.848941291       300.098291600     -1487.663427888     -1483.639625385        11.897385322
       179          179.000000         3.862313672       301.140923461     -1487.672371834     -1483.634487598        11.933198877
       180          180.000000         3.879988180       302.518988015     -1487.679814955     -1483.623550346        11.892067134
       181          181.000000         3.960328999       308.783085266     -1487.784030975     -1483.646711983        11.887668677
       182          182.000000         3.850519016       300.221305338     -1487.635361588     -1483.607133114        12.723509140
       183          183.000000         3.863840342       301.259956442     -1487.660673762     -1483.618419049        12.575980447
       184          184.000000         3.928455491       306.297938121     -1487.751803231     -1483.644226063        11.917321697
       185          185.000000         3.850533114       300.222404509     -1487.631825656     -1483.601461304        12.622474708
       186          186.000000         3.882431232       302.709470408     -1487.693818986     -1483.630857001        12.633548185
       187          187.000000         3.837050490       299.171177163     -1487.632072819     -1483.613797292        11.921300620
       188          188.000000         3.838787713       299.306626812     -1487.617250164     -1483.596556910        11.926174641
       189          189.000000         3.964230568       309.087286866     -1487.793601879     -1483.646781528        11.935358338
       190          190.000000         3.874036765       302.054961836     -1487.667690318     -1483.610367124        12.589736782
       191          191.000000         3.858939329       300.877829141     -1487.658040964     -1483.615129540        11.919687718
       192          192.000000         3.904963091       304.466258062     -1487.728954456     -1483.639335828        12.610281475
       193          193.000000         3.861507629       301.078077026     -1487.654752064     -1483.607904637        11.902944602
       194          194.000000         3.931913445       306.567551526     -1487.756800139     -1483.638863275        12.621575393
       195          195.000000         3.867908028       301.577110006     -1487.682610613     -1483.627990008        11.929684252
       196          196.000000         3.823435047       298.109594013     -1487.620037931     -1483.609214735        12.610741861
       197          197.000000         3.948094225       307.829151560     -1487.785142238     -1483.648986392        12.598021440
       198          198.000000         3.902318919       304.260094465     -1487.711545860     -1483.620477422        11.943549491
       199          199.000000         3.888168195       303.156776002     -1487.709436356     -1483.631832646        11.921595015
       200          200.000000         3.885185494       302.924217641     -1487.712684043     -1483.637378570        11.921876155
       201          201.000000         3.843640323       299.684980181     -1487.643493981     -1483.609054958        12.780816168
       202          202.000000         3.962541725       308.955609396     -1487.801712032     -1483.647691222        11.923750453
       203          203.000000         3.916980581       305.403250357     -1487.739738954     -1483.630581685        11.937091887
       204          204.000000         3.832868307       298.845096300     -1487.634532893     -1483.608797166        12.586169519
       205          205.000000         3.900238739       304.097904806     -1487.734056625     -1483.640268729        11.900102131
       206          206.000000         3.877159276       302.298421016     -1487.691826882     -1483.620432733        11.930081025
       207          207.000000         3.926803666       306.169146940     -1487.753296790     -1483.631570627        12.593613893
       208          208.000000         3.913369822       305.121722842     -1487.753550998     -1483.644561654        12.652388513
       209          209.000000         3.816059004       297.534490938     -1487.621411365     -1483.609042760        11.872718498
       210          210.000000         3.923949959       305.946646134     -1487.766983856     -1483.646042633        12.639674753
       211          211.000000         3.920782829       305.699707980     -1487.754226500     -1483.635756954        12.580040820
       212          212.000000         3.874800351       302.114497877     -1487.702235859     -1483.629052120        12.684312947
       213          213.000000         3.908745549       304.761172727     -1487.765085220     -1483.657261297        12.575026266
       214          214.000000         3.843340958       299.661638931     -1487.659236803     -1483.616123550        11.894574672
       215          215.000000         3.923112701       305.881365922     -1487.765345415     -1483.641770440        12.638351120
       216          216.000000         3.945640824       307.637862201     -1487.797044778     -1483.650236711        12.626143441
       217          217.000000         3.830262971       298.641960764     -1487.643905271     -1483.611770133        11.908721842
       218          218.000000         3.900939566       304.152547643     -1487.751902854     -1483.648397039        11.910959832
       219          219.000000         3.915602214       305.295780397     -1487.751650862     -1483.632779204        12.578324758
       220          220.000000         3.915953113       305.323139590     -1487.744053331     -1483.624120748        12.595199488
       221          221.000000         3.942218175       307.371001498     -1487.790328828     -1483.643412163        12.631741554
       222          222.000000         3.819874058       297.831947119     -1487.630000744     -1483.604710629        12.624664120
       223          223.000000         3.872756616       301.955149850     -1487.705812420     -1483.626937662        12.550583027
       224          224.000000         3.934918807       306.801876715     -1487.790414218     -1483.648667196        11.924776085
       225          225.000000         3.854004285       300.493048387     -1487.672875799     -1483.611328734        12.578039519
       226          226.000000         3.874210420       302.068501511     -1487.733648496     -1483.651190237        12.583927758
       227          227.000000         3.820991104       297.919042111     -1487.657479016     -1483.627542166        12.667263262