#     Step Nr.          Time[fs]        Kin.[a.u.]          Temp[K]            Pot.[a.u.]        Cons Qty[a.u.]        UsedTime[s]
         0            0.000000         3.843405441       300.000000000     -1336.995234380     -1333.151353917         0.000000000
         1            1.000000         3.589061151       280.146958629     -1336.630635737     -1333.040279215        48.569567718
         2            2.000000         3.571610410       278.784827504     -1336.578451710     -1333.004797569        12.781241126
         3            3.000000         3.646672527       284.643859435     -1336.678353696     -1333.028932018        12.112243794
         4            4.000000         3.604611163       281.360726971     -1336.563489858     -1332.955460534        12.167603739
         5            5.000000         3.859204989       301.233245986     -1336.875304735     -1333.012032296        13.487078153
         6            6.000000         3.723857397       290.668584477     -1336.670085483     -1332.941507130        13.518721223
         7            7.000000         3.651406239       285.013352947     -1336.593478678     -1332.936737156        12.164799541
         8            8.000000         3.982954677       310.892624101     -1337.013622291     -1333.024724499        12.824134275
         9            9.000000         3.853447831       300.783866553     -1336.786856491     -1332.926824742        12.154519692
        10           10.000000         3.754025700       293.023394832     -1336.690074027     -1332.928839290        12.179012641
        11           11.000000         3.716327976       290.080869636     -1336.664024738     -1332.939889504        12.150920592
        12           12.000000         3.701972748       288.960361125     -1336.578506982     -1332.868156643        11.470057271
        13           13.000000         4.083180380       318.715819226     -1337.058626642     -1332.966488361        12.157084472
        14           14.000000         3.980467694       310.698500701     -1336.914397455     -1332.924333091        12.132486649
        15           15.000000         3.814138571       297.715551652     -1336.706219018     -1332.881839695        12.160239697
        16           16.000000         3.993558810       311.720337929     -1336.966942579     -1332.962494464        11.478639469
        17           17.000000         3.894333153       303.975202117     -1336.822717081     -1332.916815420        12.177503295
        18           18.000000         3.925183625       306.383259724     -1336.892950262     -1332.955510563        12.177709833
        19           19.000000         3.796802167       296.362345177     -1336.773673226     -1332.963923064        12.829631284
        20           20.000000         3.600797672       281.063061921     -1336.503076076     -1332.888677422        12.819809780
        21           21.000000         3.955889239       308.780010314     -1336.975027500     -1333.004904180        12.134278104
        22           22.000000         3.969285255       309.825646759     -1336.971433206     -1332.987234754        12.104605764
        23           23.000000         3.815668741       297.834990256     -1336.815525716     -1332.984254838        12.119689234
        24           24.000000         3.840431530       299.767869000     -1336.887083626     -1333.030372793        12.193649150
        25           25.000000         3.670154986       286.476800998     -1336.642663644     -1332.955569638        12.131975032
        26           26.000000         3.864293301       301.630418114     -1336.898883511     -1333.017013911        12.094489597
        27           27.000000         3.885740934       303.304529821     -1336.947880326     -1333.043906902        12.143734850
        28           28.000000         3.619745058       282.542014905     -1336.587751967     -1332.949136810        12.102633454
        29           29.000000         3.809168330       297.327595685     -1336.874622493     -1333.045984756        12.138386935
        30           30.000000         3.837475652       299.537145706     -1336.886281357     -1333.028729332        12.108933121
        31           31.000000         3.887728228       303.459649606     -1336.919903065     -1333.011485101        12.741575442
        32           32.000000         3.913480852       305.469790668     -1337.000880759     -1333.066081558        12.736598514
        33           33.000000         3.566766914       278.406764685     -1336.549005065     -1332.960311413        12.136357643
        34           34.000000         3.742482413       292.122374562     -1336.786695541     -1333.021731694        12.084684178
        35           35.000000         3.972274034       310.058938197     -1337.047410651     -1333.052087500        12.782254994
        36           36.000000         3.818234769       298.035283561     -1336.805305091     -1332.963430726        12.086755909
        37           37.000000         3.869930637       302.070444773     -1336.903849694     -1333.009695619        12.107959010
        38           38.000000         3.752060505       292.869999985     -1336.745336317     -1332.968471505        12.093142085
        39           39.000000         3.905370235       304.836710139     -1336.886281448     -1332.955533802        12.087457851
        40           40.000000         4.084592079       318.826010517     -1337.130276168     -1333.019693849        12.114168391
        41           41.000000         3.729174053       291.083580174     -1336.654785794     -1332.898985924        12.146440536
        42           42.000000         3.791572730       295.954157390     -1336.748523251     -1332.929723803        12.137514524
        43           43.000000         4.007393002       312.800176580     -1336.994143560     -1332.958905990        12.074709021
        44           44.000000         4.002047501       312.382929330     -1336.937628038     -1332.907071810        12.748084731
        45           45.000000         4.080742490       318.525527861     -1337.093266398     -1332.983307821        12.110551529
        46           46.000000         3.799202102       296.549673968     -1336.727997279     -1332.898848829        12.075804405
        47           47.000000         3.824082400       298.491725017     -1336.747853670     -1332.893117892        12.068140432
        48           48.000000         4.083429844       318.735291397     -1337.109352938     -1332.994532441        12.817939878
        49           49.000000         3.852983776       300.747644353     -1336.792474037     -1332.907321408        12.730131790
        50           50.000000         3.830991657       299.031032407     -1336.798625775     -1332.934702760        13.422865488
        51           51.000000         3.864821183       301.671622395     -1336.820082586     -1332.921565676        12.725178398
        52           52.000000         3.885111322       303.255384906     -1336.808139819     -1332.888557230        12.752227932
        53           53.000000         4.118719480       321.489851374     -1337.163064159     -1333.009056050        12.802780442
        54           54.000000         3.835309797       299.368088153     -1336.808505726     -1332.937049931        12.734116927
        55           55.000000         3.709207213       289.525052917     -1336.656938840     -1332.910767839        12.125804685
        56           56.000000         3.901775197       304.556096654     -1336.914489931     -1332.974942721        12.765964225
        57           57.000000         3.814645119       297.755090648     -1336.772302194     -1332.919058893        12.071451373
        58           58.000000         3.897802888       304.246035029     -1336.897879529     -1332.960652127        12.102656268
        59           59.000000         3.775103534       294.668641533     -1336.773621512     -1332.958263587        12.129665434
        60           60.000000         3.632777347       283.559260352     -1336.570613917     -1332.896792464        12.081743523
        61           61.000000         3.946688711       308.061855882     -1336.997046421     -1333.008534070        12.139664426
        62           62.000000         3.868943565       301.993398094     -1336.863969100     -1332.952384882        12.106482625
        63           63.000000         3.731147774       291.237640502     -1336.708211246     -1332.933622618        12.090786986
        64           64.000000         3.749920229       292.702939029     -1336.807297066     -1333.013164337        12.077067181
        65           65.000000         3.682204669       287.417348409     -1336.677663426     -1332.950497740        12.724157043
        66           66.000000         3.977637904       310.477619261     -1337.043055348     -1333.019706062        12.731109679
        67           67.000000         3.935452123       307.184775264     -1336.983987559     -1333.002027812        12.705411695
        68           68.000000         3.660431680       285.717840777     -1336.659707505     -1332.951989192        12.754371151
        69           69.000000         3.829800307       298.938040660     -1336.926541805     -1333.048709550        12.761502445
        70           70.000000         3.891500170       303.754071470     -1336.914453677     -1332.974156396        13.363440990
        71           71.000000         3.915569102       305.632790655     -1336.941386454     -1332.976235513        13.374978848
        72           72.000000         3.865225525       301.703183585     -1336.921040719     -1333.005436261        12.730495594
        73           73.000000         3.649149398       284.837193519     -1336.617590629     -1332.917289865        12.854879901
        74           74.000000         3.946172000       308.021523672     -1336.989341895     -1332.991261354        12.709073246
        75           75.000000         4.026062632       314.257448999     -1337.065419552     -1332.986635357        12.078342862
        76           76.000000         3.816506638       297.900393010     -1336.807434536     -1332.937374336        12.073875166
        77           77.000000         3.900657030       304.468817247     -1336.961016227     -1333.005982275        12.092143156
        78           78.000000         3.813554100       297.669930349     -1336.823300708     -1332.954536875        12.724931248
        79           79.000000         3.949907629       308.313111051     -1336.990223686     -1332.984265862        12.757467002
        80           80.000000         4.011005930       313.082186429     -1337.080986667     -1333.013045788        12.050164811
        81           81.000000         3.710741143       289.644785064     -1336.701732919     -1332.933171362        12.750399478
        82           82.000000         3.855354541       300.932696283     -1336.907851972     -1332.993821751        12.713001668
        83           83.000000         3.952178876       308.490394999     -1337.020855589     -1333.009114287        12.722597189
        84           84.000000         3.887766676       303.462650636     -1336.921499195     -1332.973258713        12.731029272
        85           85.000000         3.966931500       309.641922563     -1337.066026367     -1333.037692099        12.719842479
        86           86.000000         3.764262753       293.822455909     -1336.777276349     -1332.950675742        12.741380200
        87           87.000000         3.894535246       303.990976676     -1336.943667853     -1332.985872771        12.726940133
        88           88.000000         4.083499636       318.740739023     -1337.209715865     -1333.061980423        12.751127243
        89           89.000000         3.842740346       299.948085488     -1336.890156290     -1332.982169169        13.420619592
        90           90.000000         3.876455816       302.579772654     -1336.973969265     -1333.031271827        13.408211417
        91           91.000000         3.869113174       302.006637061     -1336.943931697     -1333.007569693        13.438239299
        92           92.000000         3.906589756       304.931900781     -1336.971437514     -1332.996578073        13.426545121
        93           93.000000         4.083010356       318.702547929     -1337.225384919     -1333.073035506        13.373965442
        94           94.000000         3.829543243       298.917975322     -1336.891106436     -1332.991123657        13.400658771
        95           95.000000         3.837878849       299.568617533     -1336.907997925     -1332.998605672        13.395210542
        96           96.000000         4.026116091       314.261621786     -1337.153694105     -1333.054956028        13.424863555
        97           97.000000         3.933296117       307.016486602     -1337.003121518     -1332.996047389        14.018343009
        98           98.000000         3.988013596       311.287501917     -1337.113950892     -1333.050982633        14.016233653
        99           99.000000         3.840874488       299.802444461     -1336.937180913     -1333.020160983        14.047963083
       100          100.000000         3.792009520       295.988251422     -1336.860479899     -1332.991158376        14.738509104
       101          101.000000         4.052100880       316.289884743     -1337.210743036     -1333.080130155        13.400284693
       102          102.000000         3.873425930       302.343272598     -1336.964390317     -1333.011204921        13.412291139
       103          103.000000         3.772274535       294.447821794     -1336.872598103     -1333.019349151        14.011741467
       104          104.000000         3.828801464       298.860075155     -1336.936333817     -1333.025356888        13.362220094
       105          105.000000         3.812796445       297.610790954     -1336.849798015     -1332.953620073        12.768660851
       106          106.000000         4.021660162       313.913810829     -1337.116006375     -1333.009725360        12.106347457
       107          107.000000         3.844379083       300.075998384     -1336.887361380     -1332.957087509        12.076376602
       108          108.000000         3.673598535       286.745589870     -1336.670055788     -1332.909341329        12.112827756
       109          109.000000         3.929233832       306.699401737     -1337.016719732     -1332.999155292        12.067281976
       110          110.000000         3.892693674       303.847231345     -1336.929263774     -1332.946976848        12.112464987
       111          111.000000         3.876620354       302.592615822     -1336.944281785     -1332.976800733        12.100632109
       112          112.000000         3.811689993       297.524426055     -1336.877711938     -1332.973898913        12.052096687
       113          113.000000         3.684473860       287.594471809     -1336.650142187     -1332.872319643        11.457948722
       114          114.000000         3.974215454       310.210477259     -1337.017235329     -1332.948437910        12.112608515
       115          115.000000         3.968461825       309.761373218     -1336.993023285     -1332.928678709        12.100689977
       116          116.000000         3.808068842       297.241774222     -1336.767067883     -1332.861819125        12.070483267
       117          117.000000         3.884527678       303.209828133     -1336.907071890     -1332.924080099        12.740673795
       118          118.000000         3.783439892       295.319342407     -1336.742109189     -1332.858919362        12.726479612
       119          119.000000         3.924659642       306.342359774     -1336.941066364     -1332.915368325        12.730574936
       120          120.000000         3.914073432       305.516044950     -1336.924577391     -1332.908140857        12.747254357
       121          121.000000         3.669136400       286.397294467     -1336.606116191     -1332.833325389        13.408667661
       122          122.000000         3.850778637       300.575520520     -1336.855383069     -1332.899691960        13.354019769
       123          123.000000         3.908935062       305.114965519     -1336.911275475     -1332.896130025        13.383984230
       124          124.000000         3.870177259       302.089695020     -1336.842208930     -1332.864508236        12.716381751
       125          125.000000         3.917255369       305.764413526     -1336.968426813     -1332.942324973        13.389859304
       126          126.000000         3.771325591       294.373751243     -1336.758977448     -1332.877488437        13.391644128
       127          127.000000         3.938077696       307.389716456     -1336.970693588     -1332.921137934        12.712044232
       128          128.000000         4.016961743       313.547072026     -1337.094250051     -1332.964436093        12.744264074
       129          129.000000         3.798330367       296.481630020     -1336.795463725     -1332.882903196        12.703236610
       130          130.000000         3.900839339       304.483047549     -1336.919703398     -1332.903277244        13.412367858
       131          131.000000         3.887380194       303.432483518     -1336.901777220     -1332.897429319        13.420303680
       132          132.000000         3.914109188       305.518835882     -1336.916852489     -1332.884382748        13.977785543
       133          133.000000         4.011192480       313.096747717     -1337.075252533     -1332.944268691        13.349890165
       134          134.000000         3.769902124       294.262641392     -1336.736185334     -1332.845062653        13.349547781
       135          135.000000         3.847727168       300.337335710     -1336.848290456     -1332.877951253        13.391098514
       136          136.000000         3.997403935       312.020472130     -1337.031752532     -1332.910302084        12.733339585
       137          137.000000         3.904654314       304.780828409     -1336.898809589     -1332.868640236        12.710235745
       138          138.000000         3.971767160       310.019373749     -1337.005615592     -1332.906854849        12.100600325
       139          139.000000         3.879682167       302.831608040     -1336.870285344     -1332.862115946        12.703890257
       140          140.000000         3.913771355       305.492466098     -1336.865801117     -1332.822051915        12.083177745
       141          141.000000         4.075268402       318.098243664     -1337.077791517     -1332.871002197        12.084254049
       142          142.000000         3.877646410       302.672705432     -1336.811185573     -1332.800447186        12.120911099
       143          143.000000         3.873715280       302.365858056     -1336.818180059     -1332.809833390        12.104677975
       144          144.000000         3.943302487       307.797541540     -1336.875563773     -1332.796073594        12.129486226
       145          145.000000         3.927094919       306.532447252     -1336.816719259     -1332.751856148        12.101547837
       146          146.000000         4.070223505       317.704460318     -1337.017259056     -1332.807644897        12.125936203
       147          147.000000         3.909403534       305.151532402     -1336.817278952     -1332.766832688        12.755729556
       148          148.000000         3.863086865       301.536248802     -1336.747879703     -1332.742130716        12.755209774
       149          149.000000         4.058974982       316.826448088     -1337.008536760     -1332.805245487        12.717472240
       150          150.000000         3.954275843       308.654075399     -1336.862536715     -1332.762241938        13.425317541
       151          151.000000         3.933792384       307.055223111     -1336.868139357     -1332.786635030        13.388567440
       152          152.000000         3.873129164       302.320108260     -1336.778533573     -1332.756008117        14.037125289
       153          153.000000         3.830830792       299.018475989     -1336.716682987     -1332.734796398        14.672545783
       154          154.000000         4.067353434       317.480434709     -1337.019250248     -1332.799144880        14.721735828
       155          155.000000         3.954822390       308.696736524     -1336.872840057     -1332.763516228        14.709127173
       156          156.000000         3.809079864       297.320690383     -1336.705098776     -1332.739813671        14.034122914
       157          157.000000         3.894090963       303.956297823     -1336.871314349     -1332.819340501        12.781730376
       158          158.000000         3.834192850       299.280903981     -1336.775248914     -1332.781495787        12.077865891
       159          159.000000         3.930096715       306.766754790     -1336.917449380     -1332.826118100        12.126161717
       160          160.000000         3.887234625       303.421120972     -1336.879724882     -1332.829569523        12.108849682
       161          161.000000         3.753108411       292.951795090     -1336.704890973     -1332.787221320        12.090507075
       162          162.000000         3.953968443       308.630081074     -1336.974721479     -1332.854561462        12.127884589
       163          163.000000         3.921615369       306.104736711     -1336.899434173     -1332.809960000        12.115371741
       164          164.000000         3.855658808       300.956446061     -1336.817429762     -1332.792266739        12.083204202
       165          165.000000         3.913980941       305.508825460     -1336.931214004     -1332.846096053        12.134006850
       166          166.000000         3.813029560       297.628986977     -1336.784509102     -1332.798725530        11.447543986
       167          167.000000         3.964398724       309.444224745     -1337.006355931     -1332.867593208        12.117379606
       168          168.000000         3.975290974       310.294427804     -1337.055693238     -1332.904391952        12.131527804
       169          169.000000         3.811798571       297.532901189     -1336.859225370     -1332.869798531        12.082622297
       170          170.000000         3.914640570       305.560313388     -1337.018451902     -1332.924596950        12.119856089
       171          171.000000         3.885640544       303.296693777     -1336.970915804     -1332.904468598        12.117504202
       172          172.000000         3.897906522       304.254124205     -1336.985028563     -1332.904737602        12.724828452
       173          173.000000         3.956292022       308.811449856     -1337.076013891     -1332.935754415        12.749378599
       174          174.000000         3.816404507       297.892421083     -1336.870857052     -1332.868922397        12.061636642
       175          175.000000         3.930400701       306.790482602     -1337.032455590     -1332.914988596        13.396630943
       176          176.000000         3.990908688       311.513480638     -1337.109136689     -1332.929597471        14.012514487
       177          177.000000         3.903835785       304.716937430     -1336.966705048     -1332.872676945        13.368596070
       178          178.000000         3.968225306       309.742911561     -1337.088437742     -1332.928470856        13.391527258
       179          179.000000         3.888628755       303.529940940     -1336.972608916     -1332.890695261        12.726611055
       180          180.000000         3.931018755       306.838725325     -1337.000822998     -1332.874996301        12.073999174
       181          181.000000         4.019519417       313.746713272     -1337.086151219     -1332.870282132        12.129857816
       182          182.000000         3.854859249       300.894035866     -1336.844693973     -1332.791955017        12.095826879
       183          183.000000         3.940831263       307.604648251     -1336.930646710     -1332.790439211        11.412067033
       184          184.000000         4.023824527       314.082752029     -1337.022408249     -1332.797686144        11.405309677
       185          185.000000         4.004248282       312.554712962     -1336.956230763     -1332.749545122        11.422401398
       186          186.000000         4.070836808       317.752332150     -1337.066309436     -1332.791480021        11.450911298
       187          187.000000         3.910000019       305.198091551     -1336.849026218     -1332.733485354        11.409910508
       188          188.000000         3.919523315       305.941439833     -1336.828767075     -1332.702196373        12.081032261
       189          189.000000         4.075579908       318.122558522     -1337.054770104     -1332.770615999        12.095129043
       190          190.000000         3.956021999       308.790372956     -1336.873195829     -1332.707056612        12.057043761
       191          191.000000         3.955917801       308.782239690     -1336.899723967     -1332.732174932        12.114629574
       192          192.000000         3.939098578       307.469402200     -1336.882522369     -1332.730291760        12.053578481
       193          193.000000         3.925339560       306.395431352     -1336.852916487     -1332.712963166        12.044305131
       194          194.000000         4.054373543       316.467279236     -1337.035287736     -1332.764809968        11.423259847
       195          195.000000         3.905307010       304.831775072     -1336.823302160     -1332.700401779        11.453727297
       196          196.000000         3.855647494       300.955562905     -1336.795778460     -1332.721104266        12.061275601
       197          197.000000         3.978353540       310.533478760     -1336.954912868     -1332.756112965        12.080399841
       198          198.000000         3.936432850       307.261326694     -1336.888882571     -1332.730579762        11.437980480
       199          199.000000         3.969804347       309.866164886     -1336.971360122     -1332.778277237        11.411977462
       200          200.000000         3.882179868       303.026568004     -1336.862566720     -1332.755721065        12.065261118
       201          201.000000         3.839977720       299.732446578     -1336.783225293     -1332.717242432        12.109224610
       202          202.000000         4.020325211       313.809610169     -1337.014449219     -1332.766784842        12.041585378
       203          203.000000         3.943857789       307.840886063     -1336.900236774     -1332.727692599        11.420775533
       204          204.000000         3.873690513       302.363924811     -1336.828748804     -1332.725062946        11.464233078
       205          205.000000         3.912034002       305.356855654     -1336.898024977     -1332.754716924        12.077644676
       206          206.000000         3.873029676       302.312342670     -1336.823940409     -1332.718379483        12.080396362
       207          207.000000         3.984812682       311.037652130     -1336.973097430     -1332.754508068        12.084177725
       208          208.000000         3.932396905       306.946297868     -1336.909836730     -1332.742416731        11.412488379
       209          209.000000         3.826765736       298.701174848     -1336.751778627     -1332.688784218        11.450320609
       210          210.000000         3.959528392       309.064067205     -1336.931606346     -1332.734669256        11.562830202
       211          211.000000         3.943015510       307.775141383     -1336.890866825     -1332.709257118        11.428205431
       212          212.000000         3.928799865       306.665528100     -1336.882374165     -1332.713810725        11.434961930
       213          213.000000         3.915728053       305.645197701     -1336.887625100     -1332.730982274        11.460620552
       214          214.000000         3.826494101       298.679972200     -1336.758175818     -1332.689648852        12.105664216
       215          215.000000         3.964764827       309.472801225     -1336.968754261     -1332.760859568        12.045044005
       216          216.000000         3.967058511       309.651836460     -1336.970745705     -1332.759449280        12.086018585
       217          217.000000         3.854815430       300.890615508     -1336.838373646     -1332.738235063        12.119373344
       218          218.000000         3.888178265       303.494777583     -1336.908992728     -1332.774440113        12.066936545
       219          219.000000         3.829481489       298.913155083     -1336.829828597     -1332.752946450        12.086927317
       220          220.000000         3.891916958       303.786604169     -1336.925065096     -1332.784747976        12.095582247
       221          221.000000         3.922150236       306.146486147     -1336.975131488     -1332.803587540        11.411760658
       222          222.000000         3.767348902       294.063347693     -1336.768213292     -1332.750507772        12.091313928
       223          223.000000         3.842727043       299.947047065     -1336.880474947     -1332.786472881        12.101370916
       224          224.000000         3.895164330       304.040080315     -1336.936592789     -1332.789244665        12.109566391
       225          225.000000         3.861376262       301.402726387     -1336.859930126     -1332.745474546        12.029242411
       226          226.000000         3.891612788       303.762861916     -1336.931146068     -1332.785576759        12.062120378
       227          227.000000         3.781404154       295.160441291     -1336.781654261     -1332.745441467        12.049087480