#     Step Nr.          Time[fs]        Kin.[a.u.]          Temp[K]            Pot.[a.u.]        Cons Qty[a.u.]        UsedTime[s]
         0            0.000000         3.843405441       300.000000000     -1423.512262985     -1419.668382522         0.000000000
         1            1.000000         3.649646400       284.875987368     -1423.271912645     -1419.620962800        47.960574676
         2            2.000000         3.575607098       279.096792120     -1423.175645994     -1419.597970201        13.005986380
         3            3.000000         3.627723940       283.164812700     -1423.297833820     -1419.667325628        13.088174081
         4            4.000000         3.657247479       285.469295523     -1423.252036106     -1419.591322014        13.043197116
         5            5.000000         3.805447727       297.037181101     -1423.394188635     -1419.584608535        13.088864108
         6            6.000000         3.725770622       290.817922678     -1423.295302839     -1419.564740737        13.051268233
         7            7.000000         3.742427192       292.118064237     -1423.349011992     -1419.601160168        13.081815945
         8            8.000000         3.919747553       305.958942855     -1423.582779603     -1419.656973796        13.048293823
         9            9.000000         3.808024291       297.238296802     -1423.450402244     -1419.635672387        13.760875755
        10           10.000000         3.717278750       290.155083071     -1423.413659263     -1419.689050739        13.775639235
        11           11.000000         3.644818899       284.499173069     -1423.313652739     -1419.660916867        13.076446320
        12           12.000000         3.652019513       285.061222539     -1423.293420314     -1419.632937490        13.091462016
        13           13.000000         3.896490674       304.143609087     -1423.583176816     -1419.677689250        13.093127590
        14           14.000000         3.848191975       300.373616638     -1423.528603728     -1419.670863694        13.042049375
        15           15.000000         3.768709479       294.169548564     -1423.429349728     -1419.650549592        13.067100495
        16           16.000000         3.860843288       301.361124666     -1423.560472052     -1419.689004855        13.065258590
        17           17.000000         3.809144373       297.325725671     -1423.471967288     -1419.651662632        13.083152245
        18           18.000000         3.833566506       299.232014274     -1423.482237745     -1419.636981002        13.052630050
        19           19.000000         3.737439512       291.728746961     -1423.399951039     -1419.650300735        13.058825112
        20           20.000000         3.655999443       285.371879062     -1423.283949388     -1419.615250343        13.057420237
        21           21.000000         3.915132609       305.598719840     -1423.598498919     -1419.670194381        13.066300754
        22           22.000000         3.950918932       308.392049083     -1423.609105438     -1419.644514251        13.059574631
        23           23.000000         3.874163931       302.400877822     -1423.517658372     -1419.629304933        13.086907072
        24           24.000000         3.840906249       299.804923609     -1423.506563709     -1419.650950066        13.084778434
        25           25.000000         3.743723046       292.219213128     -1423.366098594     -1419.607160425        13.049919074
        26           26.000000         3.891231860       303.733128295     -1423.555422815     -1419.648477850        13.073017600
        27           27.000000         3.896232033       304.123420671     -1423.559184883     -1419.646725006        13.087688007
        28           28.000000         3.762464501       293.682091956     -1423.376786003     -1419.597579612        13.032716321
        29           29.000000         3.904943532       304.803403485     -1423.567780176     -1419.645588619        13.077416213
        30           30.000000         3.934269376       307.092455037     -1423.610120630     -1419.658075239        13.049646222
        31           31.000000         3.923982411       306.289497978     -1423.633271796     -1419.690965662        13.734658419
        32           32.000000         3.860988400       301.372451475     -1423.563818715     -1419.683948071        13.736243782
        33           33.000000         3.657681327       285.503159859     -1423.301491355     -1419.624387268        13.738031188
        34           34.000000         3.800694600       296.666172030     -1423.494244480     -1419.673617816        13.033955338
        35           35.000000         3.915251577       305.608005961     -1423.620303851     -1419.684601487        13.758111170
        36           36.000000         3.839090804       299.663217627     -1423.528332127     -1419.668258534        13.721776198
        37           37.000000         3.879053103       302.782505947     -1423.592276321     -1419.691707743        13.017929740
        38           38.000000         3.817802387       298.001533657     -1423.497618461     -1419.657763652        13.056737728
        39           39.000000         3.883469796       303.127254314     -1423.579898418     -1419.673839708        12.346037554
        40           40.000000         3.892808144       303.856166370     -1423.617326961     -1419.701380271        13.016048768
        41           41.000000         3.654900250       285.286080750     -1423.281155141     -1419.602577890        13.024028538
        42           42.000000         3.732697008       291.358567182     -1423.393558973     -1419.636685511        13.001109010
        43           43.000000         3.876048161       302.547952838     -1423.547575203     -1419.646855190        12.326979863
        44           44.000000         3.924202891       306.306707782     -1423.522438812     -1419.573050641        12.315985243
        45           45.000000         3.982108100       310.826543824     -1423.601557256     -1419.593725185        13.001633109
        46           46.000000         3.811622917       297.519190324     -1423.381628657     -1419.543727053        13.037686390
        47           47.000000         3.864110540       301.616152533     -1423.446119465     -1419.555183117        12.352386099
        48           48.000000         4.011178763       313.095677057     -1423.637695318     -1419.599121034        12.305865059
        49           49.000000         3.865200587       301.701237042     -1423.443478966     -1419.550284686        12.343358062
        50           50.000000         3.855050629       300.908974144     -1423.475844049     -1419.592203763        12.990097546
        51           51.000000         3.870482900       302.113552063     -1423.473556644     -1419.573882901        12.980499791
        52           52.000000         3.943136469       307.784582864     -1423.497515429     -1419.524571182        12.320102488
        53           53.000000         4.081901816       318.616019944     -1423.690414903     -1419.578046955        12.362906689
        54           54.000000         3.856971026       301.058872234     -1423.431749849     -1419.543619715        12.357917545
        55           55.000000         3.760847577       293.555881694     -1423.335551436     -1419.542871497        12.353124887
        56           56.000000         3.884582429       303.214101813     -1423.499646027     -1419.582564270        12.316470189
        57           57.000000         3.889154100       303.570947080     -1423.471428785     -1419.549089553        12.304507558
        58           58.000000         3.952248573       308.495835239     -1423.571099321     -1419.584960564        12.310783151
        59           59.000000         3.829199335       298.891131348     -1423.445509994     -1419.581701074        12.307963956
        60           60.000000         3.752365059       292.893772141     -1423.354249190     -1419.566572715        12.938828864
        61           61.000000         3.926018005       306.448387902     -1423.592729304     -1419.630698476        12.956327042
        62           62.000000         3.809298732       297.337774287     -1423.453612417     -1419.607582359        12.264353438
        63           63.000000         3.690714639       288.081600740     -1423.333812244     -1419.605673648        12.283821072
        64           64.000000         3.686719959       287.769792834     -1423.348913929     -1419.624112788        12.286067571
        65           65.000000         3.695077233       288.422126345     -1423.327501480     -1419.593712788        12.286263276
        66           66.000000         3.901967380       304.571097673     -1423.589728406     -1419.648422878        12.253737840
        67           67.000000         3.840671643       299.786611240     -1423.510836182     -1419.630180074        12.254599860
        68           68.000000         3.712765820       289.802822808     -1423.352626073     -1419.599244822        12.260806450
        69           69.000000         3.826132644       298.651758340     -1423.517302407     -1419.649941828        12.251964558
        70           70.000000         3.798574193       296.500662049     -1423.461925553     -1419.621508239        12.283451256
        71           71.000000         3.802568992       296.812479219     -1423.506485943     -1419.661466037        12.261680023
        72           72.000000         3.742622507       292.133309699     -1423.467542021     -1419.681872240        12.963116313
        73           73.000000         3.672992365       286.698274797     -1423.344350909     -1419.627742244        12.908107869
        74           74.000000         3.915226418       305.606042182     -1423.635313183     -1419.675911696        12.897842867
        75           75.000000         3.950267218       308.341179071     -1423.663956946     -1419.668923319        12.386018411
        76           76.000000         3.819188902       298.109759210     -1423.499868895     -1419.635309352        12.995852561
        77           77.000000         3.837322632       299.525201571     -1423.590534396     -1419.707243896        12.937968113
        78           78.000000         3.792984115       296.064324163     -1423.510218643     -1419.670671347        12.977098228
        79           79.000000         3.913426800       305.465571573     -1423.661094160     -1419.700505943        12.940176965
        80           80.000000         3.916466096       305.702806183     -1423.645071826     -1419.680822154        12.922924608
        81           81.000000         3.718425781       290.244615421     -1423.388837210     -1419.622008524        12.913331168
        82           82.000000         3.836927790       299.494381877     -1423.573637920     -1419.687708043        12.953154521
        83           83.000000         3.913028035       305.434445673     -1423.651812147     -1419.689166485        12.238601276
        84           84.000000         3.892614434       303.841046173     -1423.617983240     -1419.675116198        12.933844042
        85           85.000000         3.876157332       302.556474255     -1423.643120432     -1419.716064978        12.905041714
        86           86.000000         3.724761369       290.739144677     -1423.452558180     -1419.676260427        12.905662550
        87           87.000000         3.874627813       302.437086527     -1423.557229127     -1419.630439303        12.934941335
        88           88.000000         3.999669071       312.197279111     -1423.710679863     -1419.658190927        12.902743651
        89           89.000000         3.845334608       300.150582591     -1423.511022503     -1419.612184160        12.243654432
        90           90.000000         3.821626410       298.300020767     -1423.554372000     -1419.678565800        12.943553986
        91           91.000000         3.776525960       294.779670077     -1423.493589875     -1419.662214962        12.938401134
        92           92.000000         3.828630473       298.846728337     -1423.587410226     -1419.703267825        12.900656296
        93           93.000000         3.907236507       304.982383433     -1423.705307906     -1419.741883234        12.958311409
        94           94.000000         3.704298480       289.141897976     -1423.447492031     -1419.686330162        12.960156640
        95           95.000000         3.738587697       291.818369489     -1423.503269520     -1419.707175279        12.907348386
        96           96.000000         3.869037391       302.000721765     -1423.637699703     -1419.710512574        12.923038471
        97           97.000000         3.843981146       300.044937101     -1423.575708822     -1419.672920320        12.930499981
        98           98.000000         3.863741320       301.587332817     -1423.692707875     -1419.769496420        12.936159907
        99           99.000000         3.709819255       289.572826392     -1423.499599651     -1419.729654871        13.571786783
       100          100.000000         3.708059336       289.435454483     -1423.482365059     -1419.713556108        12.960263815
       101          101.000000         3.877007446       302.622830615     -1423.699130734     -1419.760753711        12.939611538
       102          102.000000         3.758107419       293.341996548     -1423.585271743     -1419.765166746        12.950053255
       103          103.000000         3.726803199       290.898521329     -1423.481799163     -1419.692392848        12.889200368
       104          104.000000         3.762071975       293.651453061     -1423.543775999     -1419.718511861        13.579576773
       105          105.000000         3.774797525       294.644755729     -1423.528912994     -1419.690342666        13.579282273
       106          106.000000         3.909554273       305.163298518     -1423.713066810     -1419.739153990        13.578345455
       107          107.000000         3.781934139       295.201809705     -1423.540580428     -1419.693690331        12.898718212
       108          108.000000         3.711391679       289.695563134     -1423.447706819     -1419.670783230        12.908381860
       109          109.000000         3.861975282       301.449483347     -1423.645321663     -1419.717248513        12.917548086
       110          110.000000         3.823565168       298.451352028     -1423.542841402     -1419.652600433        12.925567544
       111          111.000000         3.840377741       299.763670482     -1423.577544824     -1419.669912880        12.930585388
       112          112.000000         3.777284767       294.838899382     -1423.509622742     -1419.664506708        12.930329563
       113          113.000000         3.714008297       289.899805306     -1423.455390242     -1419.672991349        12.953554351
       114          114.000000         3.887083504       303.409325176     -1423.628372230     -1419.672345667        12.945230676
       115          115.000000         3.810678585       297.445479764     -1423.550708692     -1419.670520213        13.588731665
       116          116.000000         3.719183288       290.303743271     -1423.446951765     -1419.657705992        12.928809999
       117          117.000000         3.786172026       295.532601301     -1423.435511787     -1419.578742113        12.948000569
       118          118.000000         3.773389964       294.534887446     -1423.395956290     -1419.551438015        13.632605735
       119          119.000000         3.892372130       303.822132974     -1423.500882097     -1419.536849309        12.941028948
       120          120.000000         3.827862719       298.786800722     -1423.391415716     -1419.491345974        12.944671486
       121          121.000000         3.674082893       286.783396836     -1423.203113187     -1419.456292444        12.246457708
       122          122.000000         3.827022426       298.721210976     -1423.419826332     -1419.519555985        12.248576481
       123          123.000000         3.851380004       300.622460679     -1423.422527088     -1419.497378370        12.261597489
       124          124.000000         3.831337746       299.058046623     -1423.384354437     -1419.478721217        12.256229115
       125          125.000000         3.837088808       299.506950245     -1423.416144071     -1419.504230455        12.270934910
       126          126.000000         3.753544974       292.985871370     -1423.282817307     -1419.453921624        12.245168961
       127          127.000000         3.916582955       305.711927701     -1423.488376630     -1419.495917852        12.257267899
       128          128.000000         3.954568917       308.676951547     -1423.702507781     -1419.671506609        13.633529075
       129          129.000000         3.801364860       296.718489743     -1423.505346920     -1419.626977999        13.588390107
       130          130.000000         3.854014953       300.828133684     -1423.673893361     -1419.742306974        16.365795285
       131          131.000000         3.861629601       301.422500934     -1423.661601110     -1419.721820904        14.965905143
       132          132.000000         3.939341631       307.488373858     -1423.695867752     -1419.677777814        14.281491260
       133          133.000000         3.965258074       309.511301977     -1423.754017719     -1419.709380318        14.267638084
       134          134.000000         3.769370878       294.221174597     -1423.536788719     -1419.687394964        14.921235863
       135          135.000000         3.831306334       299.055594765     -1423.633679638     -1419.721718846        14.286450218
       136          136.000000         3.891720445       303.771265187     -1423.674245371     -1419.701223579        13.584915462
       137          137.000000         3.822152753       298.341104905     -1423.578315293     -1419.674200882        13.616110191
       138          138.000000         3.837395182       299.530864510     -1423.626317458     -1419.706299084        13.583998584
       139          139.000000         3.728897386       291.061984722     -1423.497164699     -1419.684986826        13.592765191
       140          140.000000         3.807439125       297.192621237     -1423.624031980     -1419.732667521        14.281574862
       141          141.000000         3.929889769       306.750601431     -1423.765933017     -1419.751453636        13.624059062
       142          142.000000         3.767487439       294.074161321     -1423.561798099     -1419.709041604        14.290466360
       143          143.000000         3.760010902       293.490574425     -1423.601941919     -1419.755999999        14.248233123
       144          144.000000         3.770765688       294.330047541     -1423.614677655     -1419.757326040        13.618310100
       145          145.000000         3.782409804       295.238938076     -1423.624947451     -1419.755300518        14.270444233
       146          146.000000         3.890047893       303.640712802     -1423.789381157     -1419.811435622        13.605979693
       147          147.000000         3.765713510       293.935695905     -1423.622503469     -1419.768220825        13.610330917
       148          148.000000         3.789288807       295.775884058     -1423.672176637     -1419.793658647        13.652362072
       149          149.000000         3.933267616       307.014261940     -1423.828473404     -1419.805300429        13.635777705
       150          150.000000         3.876878753       302.612785358     -1423.750910061     -1419.783419372        13.624467384
       151          151.000000         3.889012941       303.559928861     -1423.848163391     -1419.867817383        14.301109649
       152          152.000000         3.808341902       297.263088144     -1423.759922373     -1419.859515583        14.288084301
       153          153.000000         3.802489402       296.806266724     -1423.735994237     -1419.840710983        14.967737591
       154          154.000000         3.971409642       309.991467405     -1423.994034523     -1419.929079379        14.984311036
       155          155.000000         3.866766261       301.823446927     -1423.856102369     -1419.895002513        14.989627561
       156          156.000000         3.806883061       297.149217173     -1423.750231234     -1419.848225647        14.319336850
       157          157.000000         3.862217716       301.468406691     -1423.891454289     -1419.933318171        14.989436852
       158          158.000000         3.839679987       299.709206777     -1423.815787657     -1419.879376104        15.009540250
       159          159.000000         3.933839523       307.058902563     -1423.949294460     -1419.917887860        14.987655171
       160          160.000000         3.842876130       299.958684193     -1423.831859935     -1419.890554450        15.002410047
       161          161.000000         3.745071659       292.324480168     -1423.728154719     -1419.883799545        15.664973023
       162          162.000000         3.888141274       303.491890215     -1423.907626524     -1419.919342712        15.690247085
       163          163.000000         3.865131572       301.695850024     -1423.858444535     -1419.892279411        15.010446815
       164          164.000000         3.842091370       299.897429142     -1423.842581731     -1419.898552718        14.964336084
       165          165.000000         3.803391972       296.876717573     -1423.814933658     -1419.908693615        15.006877269
       166          166.000000         3.719811493       290.352778271     -1423.735779863     -1419.912219114        15.013270964
       167          167.000000         3.871346646       302.180972466     -1423.936345386     -1419.960344322        14.978452859
       168          168.000000         3.852077788       300.676926721     -1423.898271220     -1419.940601961        15.625675608
       169          169.000000         3.749774992       292.691602477     -1423.769792612     -1419.913489248        15.640349735
       170          170.000000         3.819593225       298.141318914     -1423.865871841     -1419.938816460        14.982807860
       171          171.000000         3.799657967       296.585256906     -1423.765740414     -1419.857672026        14.992631189
       172          172.000000         3.871750573       302.212501287     -1423.858333804     -1419.877208861        14.977586159
       173          173.000000         3.856265073       301.003768583     -1423.855129367     -1419.888499414        14.972577621
       174          174.000000         3.692783468       288.243084740     -1423.639523478     -1419.835392693        14.956300401
       175          175.000000         3.793894112       296.135354728     -1423.781451333     -1419.875242537        15.644934551
       176          176.000000         3.837524828       299.540984157     -1423.824549366     -1419.873718773        14.291218267
       177          177.000000         3.806953342       297.154703022     -1423.780200908     -1419.858935589        13.631425360
       178          178.000000         3.853143850       300.760139071     -1423.860539715     -1419.892064187        14.321531366
       179          179.000000         3.766453828       293.993482021     -1423.774032778     -1419.891217461        14.964835290
       180          180.000000         3.849856266       300.503524140     -1423.858963304     -1419.891710057        14.286329221
       181          181.000000         3.916690948       305.720357213     -1423.931509450     -1419.896347050        14.991099568
       182          182.000000         3.790384787       295.861431594     -1423.750688614     -1419.840738496        14.319956032
       183          183.000000         3.817565078       297.983010315     -1423.814497073     -1419.876275449        14.295887529
       184          184.000000         3.811836840       297.535888266     -1423.799210578     -1419.865610625        14.283651712
       185          185.000000         3.833521821       299.228526352     -1423.813969832     -1419.857563145        14.314513346
       186          186.000000         3.906414523       304.918222833     -1423.945397719     -1419.914944449        14.333602883
       187          187.000000         3.791570468       295.953980853     -1423.772053373     -1419.855269592        14.955062895
       188          188.000000         3.833845618       299.253800572     -1423.812524847     -1419.852289460        14.319723881
       189          189.000000         3.900127632       304.427494699     -1423.890135524     -1419.862406506        14.330316031
       190          190.000000         3.826057293       298.645876810     -1423.789701712     -1419.834804875        14.307443454
       191          191.000000         3.856646560       301.033545821     -1423.834806314     -1419.848069609        13.648395365
       192          192.000000         3.795157782       296.233991407     -1423.719541490     -1419.793027381        13.617878281
       193          193.000000         3.819603335       298.142108077     -1423.756188583     -1419.803955873        13.625122260
       194          194.000000         3.924161169       306.303451137     -1423.923180549     -1419.865077265        13.640076556
       195          195.000000         3.794573751       296.188404409     -1423.752458043     -1419.822602512        14.343365145
       196          196.000000         3.775592108       294.706777518     -1423.668788311     -1419.756586513        13.636177996
       197          197.000000         3.814274569       297.726167077     -1423.719547259     -1419.767322710        14.357108382
       198          198.000000         3.808401316       297.267725774     -1423.674118834     -1419.726407402        13.671059970
       199          199.000000         3.911539622       305.318266465     -1423.804653995     -1419.752409716        13.624396935
       200          200.000000         3.839382893       299.686016879     -1423.659761271     -1419.678242916        12.977052642
       201          201.000000         3.819682713       298.148304005     -1423.714329293     -1419.751075289        13.714096118
       202          202.000000         3.940106411       307.548069387     -1423.871677984     -1419.786524956        13.655464110
       203          203.000000         3.893424121       303.904246903     -1423.774219790     -1419.734222326        13.672633450
       204          204.000000         3.904395464       304.760623607     -1423.792506947     -1419.739984472        13.653872067
       205          205.000000         3.886155519       303.336890586     -1423.784532822     -1419.748664137        13.731991537
       206          206.000000         3.848537823       300.400612066     -1423.723543848     -1419.723687701        12.994879002
       207          207.000000         3.967136263       309.657905499     -1423.894163004     -1419.774058775        13.640659828
       208          208.000000         3.924606078       306.338178818     -1423.838828956     -1419.759545382        13.713374938
       209          209.000000         3.875988045       302.543260482     -1423.762417684     -1419.730023435        13.669655981
       210          210.000000         3.923451945       306.248092059     -1423.837745594     -1419.756127318        13.644890536
       211          211.000000         3.869556063       302.041207067     -1423.802655536     -1419.773138543        13.683355836
       212          212.000000         3.912234462       305.372502727     -1423.914902484     -1419.840885079        13.641852358
       213          213.000000         3.884390185       303.199095995     -1423.845288899     -1419.797256243        13.682486153
       214          214.000000         3.806312339       297.104669079     -1423.728164210     -1419.756346869        13.678004371
       215          215.000000         3.902943975       304.647326518     -1423.881027516     -1419.810693500        13.660530647
       216          216.000000         3.867208796       301.857989358     -1423.835617086     -1419.799089116        12.968630202
       217          217.000000         3.823625867       298.456089910     -1423.827180670     -1419.832301685        13.615674178
       218          218.000000         3.830138877       298.964467969     -1423.855706462     -1419.852373263        13.674810820
       219          219.000000         3.757007225       293.256120064     -1423.752719825     -1419.820580178        13.674069932
       220          220.000000         3.834806838       299.328829359     -1423.881123894     -1419.869240981        14.316268524
       221          221.000000         3.829186795       298.890152469     -1423.877251380     -1419.869013158        14.464045595
       222          222.000000         3.750368392       292.737920735     -1423.787337433     -1419.855952543        14.335313288
       223          223.000000         3.844516644       300.086735802     -1423.901769353     -1419.874265938        13.660405434
       224          224.000000         3.839495750       299.694825963     -1423.878930826     -1419.854442559        14.339890581
       225          225.000000         3.835471127       299.380680893     -1423.852729230     -1419.830249156        13.672165370
       226          226.000000         3.828843283       298.863339392     -1423.858927185     -1419.841050036        14.339098758
       227          227.000000         3.724615701       290.727774471     -1423.723521006     -1419.807869189        14.366883245