#     Step Nr.          Time[fs]        Kin.[a.u.]          Temp[K]            Pot.[a.u.]        Cons Qty[a.u.]        UsedTime[s]
         0            0.000000         3.843405441       300.000000000     -1423.356629647     -1419.512749183         0.000000000
         1            1.000000         3.648151916       284.759334242     -1423.074110498     -1419.424655336        50.384713668
         2            2.000000         3.535136449       275.937824082     -1422.962291567     -1419.425092184        13.692935228
         3            3.000000         3.586371235       279.936995170     -1423.031682595     -1419.442548807        13.676547475
         4            4.000000         3.580108042       279.448116792     -1422.964268057     -1419.380742521        12.951653250
         5            5.000000         3.735256572       291.558355907     -1423.179848752     -1419.440552527        13.693408832
         6            6.000000         3.669748257       286.445053474     -1423.092124137     -1419.417732240        12.961825993
         7            7.000000         3.647084217       284.675994180     -1423.042259678     -1419.389966973        12.960454781
         8            8.000000         3.860243864       301.314336195     -1423.337557236     -1419.471557917        12.977677450
         9            9.000000         3.762580618       293.691155602     -1423.214280478     -1419.445393065        13.735167179
        10           10.000000         3.666436376       286.186542015     -1423.120443559     -1419.447178388        12.997552544
        11           11.000000         3.630937589       283.415656576     -1423.073033276     -1419.434786116        13.007974446
        12           12.000000         3.643140097       284.368132804     -1423.057822604     -1419.406932604        13.017324988
        13           13.000000         3.922790904       306.196494041     -1423.411753657     -1419.480787527        13.681075048
        14           14.000000         3.903731530       304.708799765     -1423.367348699     -1419.454993016        13.007226486
        15           15.000000         3.781490470       295.167178792     -1423.235520683     -1419.444955421        13.746846933
        16           16.000000         3.873751681       302.368699292     -1423.354184162     -1419.470915448        12.989690468
        17           17.000000         3.824479879       298.522750496     -1423.274229175     -1419.439784605        13.728700720
        18           18.000000         3.840893979       299.803965844     -1423.325168719     -1419.473866013        12.984651785
        19           19.000000         3.748958175       292.627845151     -1423.232698713     -1419.472894842        13.730810095
        20           20.000000         3.618822734       282.470022179     -1423.014306489     -1419.384232331        12.996960830
        21           21.000000         3.880239219       302.875089167     -1423.339716983     -1419.447847477        13.033134006
        22           22.000000         3.953778111       308.615224555     -1423.389676257     -1419.423868655        13.000661243
        23           23.000000         3.836976950       299.498219125     -1423.225655892     -1419.376234433        12.974029087
        24           24.000000         3.784307251       295.387044827     -1423.192044249     -1419.394885553        12.989497140
        25           25.000000         3.672584953       286.666473969     -1422.983565588     -1419.297743267        13.012270961
        26           26.000000         3.828423528       298.830575108     -1423.164788607     -1419.322765894        12.962264005
        27           27.000000         3.865402013       301.716959471     -1423.243757693     -1419.364390643        13.005732536
        28           28.000000         3.684712037       287.613062934     -1423.061038314     -1419.362002537        13.693261381
        29           29.000000         3.810666533       297.444539076     -1423.228110514     -1419.402787126        13.751010545
        30           30.000000         3.894851093       304.015630298     -1423.288470151     -1419.378626625        13.682319891
        31           31.000000         3.925633934       306.418408942     -1423.278667410     -1419.337690640        13.043851957
        32           32.000000         3.890729438       303.693911348     -1423.248837002     -1419.342398732        12.969288200
        33           33.000000         3.668807488       286.371620968     -1422.900132981     -1419.215257088        12.973432984
        34           34.000000         3.825559210       298.606998566     -1423.095673962     -1419.253714076        13.021114994
        35           35.000000         4.007831487       312.834402832     -1423.303384781     -1419.278807297        13.017593496
        36           36.000000         3.927843788       306.590900816     -1423.189533987     -1419.244566450        12.987964317
        37           37.000000         3.944163408       307.864741410     -1423.239978769     -1419.278296062        12.983619228
        38           38.000000         3.866365936       301.792199282     -1423.089622068     -1419.205325263        12.977642231
        39           39.000000         3.924906351       306.361616873     -1423.141138080     -1419.197880999        12.966986600
        40           40.000000         3.993936127       311.749789676     -1423.289294197     -1419.276562277        12.967472732
        41           41.000000         3.747389146       292.505373424     -1422.982787833     -1419.216144235        13.709953941
        42           42.000000         3.768216086       294.131036378     -1423.011309655     -1419.223404706        12.969296053
        43           43.000000         3.920377374       306.008104028     -1423.171703488     -1419.231203227        13.036917105
        44           44.000000         3.960634352       309.150393782     -1423.175019574     -1419.193803086        12.998829179
        45           45.000000         4.004200350       312.550971628     -1423.251665464     -1419.226392897        13.030579388
        46           46.000000         3.794894029       296.213404009     -1423.029315080     -1419.212841211        12.984973725
        47           47.000000         3.772455681       294.461961265     -1423.035857591     -1419.241332704        13.010803547
        48           48.000000         3.940637128       307.589494927     -1423.253491025     -1419.290293608        12.972924519
        49           49.000000         3.822942245       298.402729267     -1423.099294728     -1419.253283740        13.025017805
        50           50.000000         3.787048749       295.601034559     -1423.051204707     -1419.240588969        12.982373741
        51           51.000000         3.801155723       296.702165381     -1423.048990181     -1419.223778703        13.023465630
        52           52.000000         3.881517938       302.974900567     -1423.107352912     -1419.201289263        13.023558252
        53           53.000000         4.067677537       317.505732835     -1423.349383572     -1419.256640579        13.013253219
        54           54.000000         3.879993414       302.855902650     -1423.097300645     -1419.191683599        13.701020289
        55           55.000000         3.758795035       293.395668964     -1422.979407452     -1419.194440975        13.759702560
        56           56.000000         3.886755579       303.383728701     -1423.161890615     -1419.248423684        14.188874789
        57           57.000000         3.911090569       305.283215258     -1423.157965801     -1419.219604674        12.993124619
        58           58.000000         3.989794022       311.426474492     -1423.258035893     -1419.240386866        13.717365138
        59           59.000000         3.877244232       302.641313122     -1423.114836263     -1419.209127517        13.018864311
        60           60.000000         3.795532507       296.263240867     -1422.997199201     -1419.172597430        13.755154025
        61           61.000000         4.005353321       312.640967652     -1423.294856696     -1419.259818677        13.765506137
        62           62.000000         3.929582174       306.726591878     -1423.190857291     -1419.230935547        13.786219101
        63           63.000000         3.797078151       296.383887329     -1423.049674607     -1419.221600211        13.735725906
        64           64.000000         3.790772785       295.891717065     -1423.080242518     -1419.257831529        13.752661783
        65           65.000000         3.795530061       296.263049992     -1423.045691883     -1419.217888811        13.750081766
        66           66.000000         3.996794546       311.972905847     -1423.325954964     -1419.296236796        13.752190698
        67           67.000000         3.932068518       306.920665371     -1423.241995565     -1419.276313407        13.729347296
        68           68.000000         3.728310808       291.016198913     -1422.977482159     -1419.214873367        13.761310875
        69           69.000000         3.812061806       297.553448200     -1423.113491854     -1419.266470560        13.715643268
        70           70.000000         3.815350149       297.810122345     -1423.094383749     -1419.243409693        13.749128766
        71           71.000000         3.827551115       298.762478230     -1423.110012597     -1419.246173657        13.707901977
        72           72.000000         3.792876846       296.055951197     -1423.032587311     -1419.202761435        13.773856360
        73           73.000000         3.690185130       288.040269441     -1422.887649093     -1419.159873583        13.745449495
        74           74.000000         3.917208342       305.760742814     -1423.182854441     -1419.227422441        13.775053866
        75           75.000000         3.993126441       311.686589009     -1423.229818372     -1419.197794674        13.007927340
        76           76.000000         3.843767712       300.028277294     -1423.032242504     -1419.148881696        13.717316434
        77           77.000000         3.830085772       298.960322816     -1423.074125638     -1419.203757925        12.970563985
        78           78.000000         3.786327087       295.544704666     -1423.000999989     -1419.173706674        13.062825151
        79           79.000000         3.909608863       305.167559586     -1423.138432528     -1419.187169182        12.993394855
        80           80.000000         3.958766597       309.004604706     -1423.220861351     -1419.219720691        12.995501097
        81           81.000000         3.772073691       294.432144772     -1422.981888934     -1419.166712654        12.990420293
        82           82.000000         3.871077375       302.159954294     -1423.087213975     -1419.172316382        13.023855627
        83           83.000000         3.968617900       309.773555821     -1423.205172606     -1419.191988165        13.009671014
        84           84.000000         3.949131253       308.252510455     -1423.180711687     -1419.186232647        13.016199376
        85           85.000000         3.922758012       306.193926560     -1423.186993865     -1419.218084877        12.995206688
        86           86.000000         3.739457635       291.886273168     -1422.955882915     -1419.169475543        13.002481975
        87           87.000000         3.833393690       299.218524940     -1423.067416174     -1419.186291897        12.997808948
        88           88.000000         3.977827110       310.492387883     -1423.224888007     -1419.198520289        13.056895170
        89           89.000000         3.838137526       299.588808775     -1423.035222300     -1419.147708306        13.033423439
        90           90.000000         3.815115285       297.791789840     -1423.003847430     -1419.138529829        13.010469135
        91           91.000000         3.783116348       295.294087903     -1423.011295400     -1419.177157158        13.783001255
        92           92.000000         3.824341422       298.511943177     -1423.047148783     -1419.170969509        12.996656947
        93           93.000000         3.921254452       306.076565036     -1423.207830365     -1419.233904039        13.094122767
        94           94.000000         3.737881276       291.763229191     -1422.976682486     -1419.185290441        13.026423886
        95           95.000000         3.746490897       292.435259870     -1422.993358273     -1419.192547074        13.030527048
        96           96.000000         3.899030579       304.341863372     -1423.206961827     -1419.252793948        13.002799492
        97           97.000000         3.880554682       302.899712877     -1423.157886049     -1419.221349944        13.035149254
        98           98.000000         3.890612021       303.684746250     -1423.197602882     -1419.250151947        13.061771099
        99           99.000000         3.760815725       293.553395453     -1423.047349923     -1419.228839014        13.039534841
       100          100.000000         3.750575568       292.754092052     -1423.026293870     -1419.217189679        13.027030475
       101          101.000000         3.924404646       306.322455871     -1423.264928671     -1419.281151574        13.059840418
       102          102.000000         3.816319611       297.885794453     -1423.093321799     -1419.216763241        13.030394103
       103          103.000000         3.766673110       294.010598207     -1422.983181610     -1419.155418278        13.034304880
       104          104.000000         3.814992188       297.782181397     -1423.093524289     -1419.216597165        13.080745872
       105          105.000000         3.826480248       298.678890901     -1423.056285640     -1419.167019242        13.794799495
       106          106.000000         3.938598510       307.430368955     -1423.212640310     -1419.210384926        13.781139228
       107          107.000000         3.790928997       295.903910301     -1423.037184979     -1419.181713167        13.051258832
       108          108.000000         3.680184018       287.259624930     -1422.906107517     -1419.160526961        13.052389741
       109          109.000000         3.839394916       299.686955293     -1423.123692873     -1419.218061005        13.071951672
       110          110.000000         3.837586974       299.545835019     -1423.093960152     -1419.189276278        13.031090375
       111          111.000000         3.838138886       299.588914935     -1423.084826798     -1419.178725501        13.096681926
       112          112.000000         3.796685886       296.353268779     -1423.043827764     -1419.178313790        13.042755350
       113          113.000000         3.757854696       293.322270090     -1422.932643453     -1419.105106336        13.059313595
       114          114.000000         3.947807920       308.149216612     -1423.211943561     -1419.193586150        13.792567816
       115          115.000000         3.897406254       304.215075380     -1423.141577849     -1419.172716965        13.780794658
       116          116.000000         3.757506430       293.295085914     -1422.977462770     -1419.147602645        13.773365375
       117          117.000000         3.802554498       296.811347880     -1423.052870025     -1419.177078907        13.084577166
       118          118.000000         3.818366115       298.045535903     -1423.056880415     -1419.164389049        13.058869101
       119          119.000000         3.927661682       306.576686407     -1423.195540742     -1419.192845624        13.791569404
       120          120.000000         3.872763427       302.291560387     -1423.101723174     -1419.152991068        13.053407591
       121          121.000000         3.716850699       290.121671153     -1422.900629423     -1419.106888908        13.053506471
       122          122.000000         3.861037231       301.376263048     -1423.083397315     -1419.144560272        13.026831087
       123          123.000000         3.914740514       305.568114573     -1423.135551895     -1419.142068384        13.097562697
       124          124.000000         3.860310096       301.319505973     -1423.085223231     -1419.145207106        13.049598578
       125          125.000000         3.822559238       298.372833366     -1423.070159766     -1419.166930672        13.053115901
       126          126.000000         3.740143073       291.939775562     -1422.941887168     -1419.120122282        13.064024501
       127          127.000000         3.900441073       304.451960573     -1423.128053269     -1419.145034612        13.066676695
       128          128.000000         3.950662986       308.372071064     -1423.192656669     -1419.158416309        13.097388957
       129          129.000000         3.762130699       293.656036779     -1422.949871414     -1419.103156815        13.081346322
       130          130.000000         3.758812359       293.397021198     -1422.984690342     -1419.140315043        13.109110158
       131          131.000000         3.775030573       294.662946453     -1422.960284240     -1419.098717264        13.121195417
       132          132.000000         3.850329032       300.540426219     -1423.079242133     -1419.141394544        13.828606050
       133          133.000000         3.870929364       302.148401194     -1423.120529967     -1419.161078379        13.808097813
       134          134.000000         3.673632690       286.748255890     -1422.887185463     -1419.124040691        13.811649095
       135          135.000000         3.745757800       292.378037464     -1422.995616225     -1419.159390314        13.850730103
       136          136.000000         3.876964597       302.619485975     -1423.149122049     -1419.180715877        13.857972980
       137          137.000000         3.819249919       298.114521917     -1423.070886390     -1419.159200845        13.828744870
       138          138.000000         3.775443408       294.695170637     -1423.079404288     -1419.210539465        13.853181034
       139          139.000000         3.662479472       285.877682823     -1422.936968081     -1419.180107406        13.116235476
       140          140.000000         3.751780109       292.848113428     -1423.108652476     -1419.261555559        13.854374513
       141          141.000000         3.911025323       305.278122413     -1423.327559529     -1419.320257658        13.834682610
       142          142.000000         3.782956439       295.281606094     -1423.156729218     -1419.276516963        13.799619388
       143          143.000000         3.746422655       292.429933226     -1423.131565511     -1419.286928970        13.845606714
       144          144.000000         3.797474813       296.414849102     -1423.191623904     -1419.294982867        13.872878373
       145          145.000000         3.858010479       301.140007605     -1423.298141314     -1419.339997595        13.805115230
       146          146.000000         3.940463614       307.575951138     -1423.416648214     -1419.375052937        13.865074854
       147          147.000000         3.778309071       294.918852184     -1423.196717998     -1419.316265877        13.825107642
       148          148.000000         3.736098076       291.624040162     -1423.150996681     -1419.311770809        13.865608107
       149          149.000000         3.889317133       303.583672817     -1423.344945610     -1419.351507820        13.875771951
       150          150.000000         3.878319783       302.725266114     -1423.269940674     -1419.286473469        13.847370174
       151          151.000000         3.857420535       301.093959061     -1423.274667054     -1419.311059301        13.895167053
       152          152.000000         3.775018277       294.661986713     -1423.233888243     -1419.351645048        13.840629756
       153          153.000000         3.762027510       293.647982310     -1423.211759304     -1419.341483332        13.855420135
       154          154.000000         3.926504241       306.486341403     -1423.424581470     -1419.388785702        13.896785226
       155          155.000000         3.855647717       300.955580313     -1423.361719439     -1419.395702644        13.836041357
       156          156.000000         3.769690788       294.246145411     -1423.224079223     -1419.342950387        13.845863126
       157          157.000000         3.824453697       298.520706850     -1423.304695060     -1419.367738691        13.900677208
       158          158.000000         3.843200945       299.984037896     -1423.298196832     -1419.341411689        13.882740475
       159          159.000000         3.927291730       306.547809498     -1423.418297933     -1419.376312752        13.847670313
       160          160.000000         3.836858301       299.488957861     -1423.317410414     -1419.364726093        13.906051230
       161          161.000000         3.725382324       290.787613773     -1423.185955329     -1419.343633906        13.838202957
       162          162.000000         3.855186315       300.919565255     -1423.359800107     -1419.386564470        14.672504909
       163          163.000000         3.862716575       301.507345544     -1423.333059197     -1419.351151641        15.421398796
       164          164.000000         3.819693757       298.149166049     -1423.288259187     -1419.348223314        14.664937019
       165          165.000000         3.787230299       295.615205608     -1423.267158081     -1419.358438091        14.648422915
       166          166.000000         3.743809148       292.225933897     -1423.196619959     -1419.330184151        14.676151149
       167          167.000000         3.888775367       303.541384809     -1423.390959875     -1419.378408355        14.615703609
       168          168.000000         3.879146006       302.789757574     -1423.379960773     -1419.375850943        13.890388481
       169          169.000000         3.736804434       291.679175486     -1423.211623870     -1419.348674861        14.639199868
       170          170.000000         3.766134282       293.968539567     -1423.247314095     -1419.353876186        13.903355420
       171          171.000000         3.788018262       295.676710627     -1423.276574277     -1419.360088332        13.933384616
       172          172.000000         3.853557640       300.792437786     -1423.353529937     -1419.370324388        13.888558786
       173          173.000000         3.847116167       300.289643591     -1423.374934540     -1419.396968110        13.941282544
       174          174.000000         3.720269654       290.388540348     -1423.215282142     -1419.362970206        13.887905639
       175          175.000000         3.803216077       296.862987898     -1423.330810305     -1419.394373166        13.889144335
       176          176.000000         3.866445351       301.798398061     -1423.408827540     -1419.407955059        14.620245498
       177          177.000000         3.808944640       297.310135331     -1423.327839602     -1419.383246342        13.905226421
       178          178.000000         3.787324016       295.622520732     -1423.334060489     -1419.409871898        16.104310833
       179          179.000000         3.729640095       291.119957450     -1423.255277888     -1419.387568943        14.698216107
       180          180.000000         3.823857327       298.474156716     -1423.276427305     -1419.313296767        14.624664322
       181          181.000000         3.901250278       304.515123704     -1423.397671283     -1419.355907229        14.640954390
       182          182.000000         3.783803045       295.347688641     -1423.238604174     -1419.313033382        14.601933386
       183          183.000000         3.796175170       296.313404438     -1423.295406690     -1419.356222285        14.627873275
       184          184.000000         3.835661723       299.395558022     -1423.334261907     -1419.354336401        14.621448234
       185          185.000000         3.863975612       301.605620662     -1423.305520338     -1419.296003643        13.871919844
       186          186.000000         3.898996504       304.339203614     -1423.363659115     -1419.317815723        13.885428362
       187          187.000000         3.787590744       295.643340405     -1423.214259788     -1419.278508118        13.919644713
       188          188.000000         3.822233098       298.347376245     -1423.211889266     -1419.240188055        13.892484523
       189          189.000000         3.923968187       306.288387739     -1423.336834891     -1419.262056587        14.656242315
       190          190.000000         3.869069864       302.003256456     -1423.262828975     -1419.241572494        14.632768422
       191          191.000000         3.851349757       300.620099730     -1423.269222221     -1419.264301891        14.612357784
       192          192.000000         3.814589639       297.750760172     -1423.233155320     -1419.263605664        13.938344289
       193          193.000000         3.842894005       299.960079463     -1423.245470585     -1419.246218594        13.934103452
       194          194.000000         3.941144077       307.629065160     -1423.359157823     -1419.260218558        13.210158311
       195          195.000000         3.849671564       300.489107035     -1423.236416678     -1419.227482101        13.162507780
       196          196.000000         3.801923831       296.762120618     -1423.188904756     -1419.226259571        13.913125582
       197          197.000000         3.857612343       301.108930768     -1423.254705786     -1419.234903555        13.193668716
       198          198.000000         3.864956231       301.682163670     -1423.239112866     -1419.210470108        13.912424818
       199          199.000000         3.889766630       303.618758615     -1423.294709921     -1419.239734641        13.930590607
       200          200.000000         3.810767085       297.452387684     -1423.202324231     -1419.224816027        13.927399289
       201          201.000000         3.784646351       295.413513487     -1423.180033293     -1419.227125286        13.982067447
       202          202.000000         3.906285294       304.908135784     -1423.328408353     -1419.252315634        13.950163096
       203          203.000000         3.899793002       304.401374916     -1423.298959727     -1419.227766714        13.965266235
       204          204.000000         3.869673756       302.050393735     -1423.263648179     -1419.220964377        13.200341865
       205          205.000000         3.860664668       301.347182340     -1423.277014370     -1419.241717912        13.957116079
       206          206.000000         3.860235644       301.313694520     -1423.266451285     -1419.229946561        13.926677842
       207          207.000000         3.959212082       309.039377403     -1423.394682313     -1419.257523066        13.900841191
       208          208.000000         3.919175324       305.914277108     -1423.343113680     -1419.244266569        13.903355401
       209          209.000000         3.848853499       300.425252402     -1423.257502127     -1419.227248295        13.906296656
       210          210.000000         3.917783293       305.805621071     -1423.353222203     -1419.252292305        13.961300801
       211          211.000000         3.940974595       307.615836183     -1423.367640625     -1419.241725213        13.187144201
       212          212.000000         3.960261077       309.121257486     -1423.399089014     -1419.252050204        13.142515980
       213          213.000000         3.915361776       305.616607620     -1423.369438671     -1419.265433217        13.186604854
       214          214.000000         3.846166398       300.215508588     -1423.284280387     -1419.247605241        13.923985284
       215          215.000000         3.943863368       307.841321594     -1423.410251436     -1419.273990649        13.138555475
       216          216.000000         3.967408729       309.679172998     -1423.451211245     -1419.289456753        13.930926085
       217          217.000000         3.903163224       304.664440163     -1423.391184287     -1419.291702880        13.937065441
       218          218.000000         3.887880157       303.471508509     -1423.363499554     -1419.277324926        13.921896346
       219          219.000000         3.865052441       301.689673384     -1423.327043300     -1419.261711268        13.892990451
       220          220.000000         3.933187481       307.008006945     -1423.393880755     -1419.258401116        13.155804541
       221          221.000000         3.945482699       307.967719678     -1423.368925792     -1419.219092213        13.250996068
       222          222.000000         3.846362933       300.230849345     -1423.220720303     -1419.167945025        13.163120653
       223          223.000000         3.874521326       302.428774569     -1423.265751068     -1419.182764102        13.187307768
       224          224.000000         3.923088225       306.219701628     -1423.313261208     -1419.179620868        13.201165918
       225          225.000000         3.934172136       307.084864899     -1423.304206910     -1419.157359846        13.205739923
       226          226.000000         3.926859880       306.514101063     -1423.385772028     -1419.244091189        13.931156639
       227          227.000000         3.847080432       300.286854236     -1423.291565231     -1419.227523487        13.938903470