    2698
 i =        0, time =        0.000, E =     -1423.3566296468
  C        10.3899360000       14.3920640000       10.0679830000
  O        11.6797040000       14.1633210000        9.8095430000
  O         9.9103000000       15.5547600000       10.1465250000
  N         9.5562210000       13.2902040000       10.0071540000
  H         8.6248920000       13.4080510000        9.5697320000
  H        10.0324010000       12.3623280000        9.7643370000
  H        11.8815480000       13.1040120000       10.1366280000
  O        26.0123900000       20.4307750000        1.8512900000
  H        25.2681290000       20.3424800000        2.5423730000
  H        26.0330070000       21.4321140000        1.9073970000
  O         7.4381310000       16.7047210000        0.2563240000
  H         7.1242780000       17.3586270000        0.9258400000
  H         8.1114050000       16.1731760000        0.7741750000
  O         0.3174660000        8.5123330000       -8.4809960000
  H         0.0992410000        8.2653540000       -7.5284720000
  H         0.0580620000        9.4951260000       -8.3765590000
  O        23.7288280000       20.0407730000       -6.5369340000
  H        22.7986240000       19.9343220000       -6.2326890000
  H        24.0522500000       20.5493070000       -5.7395220000
  O        22.9224130000        7.9933550000        9.8024490000
  H        22.6219330000        8.3582910000        8.9394810000
  H        22.6847230000        8.6510430000       10.4182250000
  O        14.5028350000       -4.6983290000        8.8083990000
  H        14.7544900000       -3.8371010000        8.3573200000
  H        13.6321430000       -4.3559050000        9.1496670000
  O        -4.6751640000       21.5988480000       -6.3568450000
  H        -4.6002820000       21.7548920000       -7.3235170000
  H        -5.1126500000       22.4333040000       -6.0914170000
  O        -6.5968510000        9.5486380000        0.1089930000
  H        -6.4999370000       10.4910850000       -0.2075430000
  H        -5.6500270000        9.3000560000        0.1241750000
  O        29.8395440000       -2.0542110000       -2.2554430000
  H        30.2074320000       -2.5442120000       -3.0402870000
  H        28.9632760000       -2.5482910000       -2.1770130000
  O        21.5449300000       26.8820840000       -1.9618150000
  H        20.5699290000       27.0643270000       -1.8046820000
  H        21.7915290000       27.8596440000       -2.0798940000
  O         0.0642830000        9.8559160000        3.0938570000
  H        -0.7069450000        9.5187090000        3.6027540000
  H        -0.3095110000       10.6730650000        2.7704660000
  O         6.3588790000       16.8468460000      -13.2600750000
  H         5.5508900000       16.3794480000      -13.5894090000
  H         6.0493690000       17.7836490000      -13.2852080000
  O        23.5436820000        6.3874260000       -1.4103320000
  H        23.9279880000        7.0430850000       -2.0649030000
  H        23.1727660000        7.1026940000       -0.7651440000
  O        -0.6063000000        0.7662350000      -10.6069050000
  H        -0.3606720000        1.2753570000      -11.4092580000
  H         0.0534860000        1.1027020000       -9.9565320000
  O        23.7215980000        1.3705540000        0.1756920000
  H        23.7829720000        2.3709520000        0.2903870000
  H        23.5872250000        1.3265400000       -0.7966420000
  O         8.2699440000       -0.0536640000      -12.0370000000
  H         7.6547610000        0.2941080000      -11.4113070000
  H         7.6714950000       -0.5974740000      -12.6037000000
  O        -3.2320180000       17.4747050000       -3.1470830000
  H        -3.6208760000       18.1826480000       -3.7647780000
  H        -3.6836370000       17.8077390000       -2.3321660000
  O        29.3916360000       -9.2521090000       -4.4174500000
  H        29.0483020000       -9.3608470000       -5.3219630000
  H        30.1265540000       -9.9258530000       -4.4834050000
  O        20.8091870000       26.6373650000       -8.1146720000
  H        20.0754300000       26.6211090000       -7.5271150000
  H        21.0781800000       27.5871810000       -8.1097540000
  O        16.0059320000       13.1796920000       -5.9623090000
  H        15.1486420000       12.9836350000       -6.3751970000
  H        15.8704930000       14.1560960000       -5.7592420000
  O        13.0169560000       14.6323120000      -11.2976940000
  H        13.4430830000       14.8842200000      -10.4410070000
  H        12.7435070000       15.4848180000      -11.6736620000
  O        15.1011890000       26.9980770000      -15.5681800000
  H        14.4721460000       26.3758490000      -16.0567990000
  H        14.7750610000       26.7998790000      -14.6039810000
  O        23.2291360000        4.1216160000       -2.7947360000
  H        23.3412760000        4.9692260000       -2.2694260000
  H        23.7661550000        4.3596940000       -3.6076670000
  O        21.8187870000       -2.9196420000       -8.2647140000
  H        22.7843840000       -2.9673050000       -8.0329520000
  H        21.8318040000       -2.0407220000       -8.7402850000
  O        -3.7971060000        3.8370950000       -9.6497470000
  H        -2.8593240000        3.8190610000       -9.8411230000
  H        -4.1528880000        3.5487050000      -10.5424080000
  O        20.3200510000       11.4716800000       -0.7536230000
  H        20.7156070000       12.3841790000       -0.8061070000
  H        19.4573550000       11.7012620000       -1.2764800000
  O        15.3112270000        7.3053540000        1.9663480000
  H        15.7555970000        8.1759350000        1.8265260000
  H        14.4419830000        7.4835250000        1.5196930000
  O         0.6393110000       22.5009690000       -2.0872990000
  H         1.4998990000       22.8660180000       -1.8242380000
  H         0.5396970000       21.6982520000       -1.5291950000
  O        23.5942960000        8.1400980000      -12.6477240000
  H        22.6762640000        8.3319780000      -12.3872800000
  H        23.4931720000        8.2232780000      -13.6122970000
  O        16.7391830000        1.7250240000       -1.2591690000
  H        16.3525510000        2.2146400000       -2.0268130000
  H        17.2259350000        1.0271990000       -1.7564620000
  O        23.3152960000       -5.1584060000        0.1271060000
  H        23.8150540000       -4.3786230000        0.3838200000
  H        22.6317650000       -4.8107270000       -0.4824980000
  O        -1.9694440000        7.6110920000       -9.9273030000
  H        -2.4793000000        8.2600240000       -9.4250890000
  H        -1.0939360000        7.8002870000       -9.5018750000
  O        34.7538870000       -2.8550060000       13.0122080000
  H        34.6277080000       -1.9157220000       13.3317520000
  H        35.4861560000       28.8395200000       13.5566360000
  O         1.9829490000        0.7979050000        3.5358200000
  H         1.2289010000        1.1551760000        4.1015810000
  H         1.4655220000        0.4905600000        2.7899680000
  O         7.1466420000       -0.0760640000       -5.6679710000
  H         7.2005490000        0.4241000000       -6.5168910000
  H         6.1580830000       -0.1158430000       -5.6140140000
  O        11.3972060000       -2.5044220000      -14.3791370000
  H        12.2783990000       -2.3373830000      -14.8010560000
  H        11.0249370000       -3.2585450000      -14.8598700000
  O        28.4722120000       17.1163520000        4.3087760000
  H        28.2616390000       16.7787420000        5.2219540000
  H        27.9914190000       17.9475360000        4.3161000000
  O        22.7770180000        8.5210210000       -0.0213460000
  H        23.5843730000        9.0822180000       -0.0671440000
  H        22.1613750000        9.1551770000        0.3687700000
  O        30.2813840000        0.3495870000       -2.8864930000
  H        31.1770440000        0.6203330000       -2.7204330000
  H        30.2050970000       -0.5682630000       -2.4760020000
  O         1.1186750000        1.2108930000      -12.9288250000
  H         0.8329620000        2.1369210000      -12.7887230000
  H         0.2779730000        0.7860840000      -13.1361520000
  O         9.7595360000        3.2388060000        2.9145210000
  H        10.2336640000        4.0821860000        2.8184600000
  H         8.8558200000        3.5339840000        2.8386540000
  O        13.3250270000       -4.5904470000       -7.8875720000
  H        13.7824690000       -3.7264140000       -7.9258890000
  H        12.4295520000       -4.3496100000       -8.1762010000
  O         4.6918360000       -1.8140970000      -14.8211340000
  H         3.8595700000       -1.3554900000      -14.5964110000
  H         4.5910230000       -1.9656390000      -15.7669450000
  O        27.6970120000       -0.2752580000       -3.7843110000
  H        28.6530780000       -0.0674240000       -3.6932330000
  H        27.3466130000        0.6359990000       -3.9334090000
  O        16.0934390000       19.7861790000       11.8893010000
  H        16.8701820000       20.2213130000       12.4435140000
  H        16.3191410000       18.8817200000       11.7018970000
  O         3.4788590000        6.2062020000       -9.7614230000
  H         4.2713010000        6.7727600000       -9.6606120000
  H         2.8020220000        6.9302560000      -10.0210540000
  O         9.5378270000       11.3384110000       -8.2722110000
  H         9.6220850000       12.0263470000       -7.5688970000
  H         9.9652610000       11.8882580000       -9.0081240000
  O        27.0873700000        4.7501520000        8.3667560000
  H        26.3551670000        4.8815880000        7.6770740000
  H        26.9585820000        5.5628480000        8.8471150000
  O         9.8701370000        7.5746300000        4.9967910000
  H         9.6204250000        7.0079980000        4.2075120000
  H        10.4514670000        6.9597130000        5.5243290000
  O        10.9129220000       -3.0988660000      -11.7287030000
  H        10.5888020000       -2.2631900000      -11.3130650000
  H        11.3227060000       -2.6846540000      -12.5286040000
  O        16.8609030000       14.8201740000       -1.7400510000
  H        16.4646190000       14.1756270000       -1.1108240000
  H        16.0538350000       15.1453530000       -2.1888880000
  O        10.1385520000        4.6463860000       11.5705930000
  H         9.3661040000        4.1159410000       11.3034980000
  H        10.9427570000        4.1973080000       11.4473610000
  O         7.3219440000       18.4098550000        3.5317490000
  H         7.3861510000       17.4661060000        3.7675410000
  H         8.2899630000       18.6349120000        3.8046110000
  O         5.2571350000       25.2928750000        1.0518430000
  H         5.8401190000       25.8519330000        1.6319160000
  H         5.7668370000       25.4159760000        0.2122860000
  O         7.0131040000        0.5647710000      -14.9796670000
  H         7.7090540000       -0.0185600000      -15.2084730000
  H         7.4816200000        1.4193030000      -14.8049760000
  O        14.4510370000        7.8993120000       11.4310590000
  H        15.2034420000        7.3987820000       11.8450830000
  H        14.8776680000        8.6609840000       11.0042080000
  O         1.8344220000        2.8567810000        6.4481950000
  H         1.2314240000        2.7321100000        7.2200980000
  H         1.4933950000        3.6855510000        6.0633480000
  O        18.0507810000       -0.7286430000      -13.2118990000
  H        17.3921720000       -0.0466270000      -12.9046660000
  H        17.3893340000       -1.4937640000      -13.2313130000
  O        22.5142500000       21.4402310000      -15.2881530000
  H        22.7445130000       22.2320190000      -14.8372010000
  H        22.3833960000       21.7090760000      -16.1971890000
  O         7.4502740000       -2.8267390000        3.6304070000
  H         8.1710330000       29.6667500000        4.0082060000
  H         7.0153280000       -2.1108250000        3.1048540000
  O         2.2243680000       16.2602500000       -4.0231670000
  H         1.4174640000       16.8325560000       -3.9413140000
  H         2.6881380000       16.4537750000       -3.1928090000
  O        22.9125800000       17.9985600000        5.0652170000
  H        22.8218900000       18.9425560000        5.3945840000
  H        22.2259450000       17.5744420000        5.5244950000
  O         7.2219010000        5.8098330000        0.4137930000
  H         7.7279250000        6.5260900000        0.0037480000
  H         7.0604880000        5.2628330000       -0.3974010000
  O        30.9955960000        0.2647780000       12.2430090000
  H        30.6910230000        0.7831940000       11.4533300000
  H        30.1673790000        0.1709360000       12.7249460000
  O         7.7893370000       -0.2216650000       -2.6690890000
  H         7.6407280000       -0.1128350000       -3.6362260000
  H         6.8488140000       -0.2647590000       -2.3624040000
  O        17.4400250000       20.2299520000        2.3465550000
  H        16.4608040000       20.4573150000        2.4859990000
  H        17.8619420000       21.0236020000        2.7397660000
  O        24.4457420000       21.5137670000       -4.3168990000
  H        23.8762660000       22.3254070000       -4.1621800000
  H        25.3235740000       21.9185850000       -4.0430130000
  O        20.6660770000        5.5985300000       -5.2613230000
  H        20.9353540000        5.6033130000       -4.3245210000
  H        19.9546280000        6.3223850000       -5.1855910000
  O        11.0704860000       -1.3166910000       10.2899440000
  H        11.8085770000       -1.9506200000       10.5360050000
  H        11.6217830000       -0.4744370000       10.2484040000
  O         4.3374410000       29.5323030000        6.5960160000
  H         4.2990960000       30.5145050000        6.5965760000
  H         3.3752160000       29.3216740000        6.5334220000
  O        -2.9997650000        2.5078970000       -1.8481780000
  H        -2.5271740000        1.7895260000       -2.3390590000
  H        -3.3615270000        3.0720990000       -2.5338550000
  O         6.6860780000        9.0553660000      -12.4460620000
  H         6.5381240000        9.9858270000      -12.7785180000
  H         6.3269310000        8.5851000000      -13.2530290000
  O         4.4844620000       -5.2147110000       -6.3335990000
  H         3.8581260000       -5.5321170000       -5.6469600000
  H         4.4575240000       -4.2690570000       -6.1066720000
  O        25.5450000000       16.9919360000      -15.2980130000
  H        25.0013710000       17.7573910000      -14.9886020000
  H        24.8424360000       16.2889400000      -15.1901930000
  O        14.8245540000       14.7407970000        6.2537450000
  H        15.0252400000       13.8772820000        5.8869230000
  H        15.0459640000       14.8188780000        7.2390460000
  O        12.1617130000        7.9861550000       -1.8227420000
  H        11.7174650000        8.8314810000       -2.0772040000
  H        12.8823180000        8.0117940000       -2.4954310000
  O         5.8115390000       11.7195480000      -12.6816430000
  H         5.0343900000       12.2408430000      -13.0451010000
  H         5.9201660000       12.0765410000      -11.8182160000
  O        19.6497120000       -1.7516260000       -6.6644950000
  H        18.9369300000       -1.1619360000       -7.0224710000
  H        20.3486860000       -1.6279130000       -7.2939730000
  O        21.3547100000        4.2526610000      -13.7826030000
  H        20.9342630000        5.0603790000      -13.9902780000
  H        20.7919580000        3.5468020000      -14.1006320000
  O         9.3011750000       18.7387810000       -1.2573480000
  H         8.4746110000       18.4267640000       -0.8663310000
  H         9.1486340000       19.7315770000       -1.1886690000
  O        24.4006900000       -3.9141350000       -7.9170320000
  H        25.2761310000       -3.6593250000       -8.2880850000
  H        24.3086810000       -4.7973870000       -8.3301230000
  O        14.2405640000       18.2970810000       -9.4077040000
  H        13.2857420000       18.4599800000       -9.1923650000
  H        14.6115790000       19.2158110000       -9.3966820000
  O        17.0198800000       15.2713750000        3.6437140000
  H        16.3978900000       15.0433460000        2.9699470000
  H        17.5314330000       15.9432440000        3.1135740000
  O         4.4971940000        8.7722530000        8.2837970000
  H         4.9666600000        8.0325330000        7.9761350000
  H         5.1877690000        9.2821790000        8.7616330000
  O         9.9503310000        1.4521890000        4.8429660000
  H         9.8526050000        1.9743500000        4.0042650000
  H         8.9987010000        1.4337970000        5.1363040000
  O        18.5272480000       14.0616590000        6.9535820000
  H        19.1796130000       13.7322300000        7.5303690000
  H        19.1585520000       14.3635730000        6.2191220000
  O        24.2272260000       23.1133710000        6.7984990000
  H        24.0987930000       24.0649450000        6.8115640000
  H        23.4890060000       22.8478180000        7.4034380000
  O         7.2829750000        4.3792300000       -1.7537990000
  H         8.1443660000        4.5487550000       -2.1740910000
  H         7.1781230000        3.4121110000       -1.9778900000
  O        -1.8484880000        0.8997470000        0.6062560000
  H        -2.7478160000        0.9091050000        0.2401940000
  H        -1.6484700000        1.8266420000        0.6012190000
  O        -2.0353830000        5.2487770000        5.4556710000
  H        -2.4620910000        4.8273840000        6.2312970000
  H        -2.5834770000        6.0341740000        5.3188510000
  O         8.6845220000       -2.9847770000        0.5083870000
  H         7.8626200000       -3.1780830000       -0.0038350000
  H         8.6498160000       -1.9889660000        0.5096650000
  O         9.8341040000        2.8995280000        8.3466250000
  H         9.8792860000        3.2602160000        9.2629150000
  H        10.2777050000        2.0228360000        8.2312720000
  O        18.6261080000       23.9705810000      -12.4485330000
  H        18.5358910000       23.1598550000      -13.0003490000
  H        18.9813290000       24.5795560000      -13.1454790000
  O         7.8061900000        0.0534930000       -8.2805790000
  H         7.2219930000        0.2855400000       -9.0326880000
  H         8.2551720000        0.9054970000       -8.0939530000
  O        15.8096550000       23.5503410000        0.8217250000
  H        16.5687520000       -7.8337320000        0.5617590000
  H        15.9317900000       23.6387710000        1.8132630000
  O        15.1734540000       21.5344100000       -2.8898180000
  H        14.7459370000       22.3348260000       -2.5491760000
  H        16.1111870000       21.8534760000       -3.0228160000
  O         7.3007690000        1.2555430000        8.7569180000
  H         6.3949760000        1.1401440000        8.3863420000
  H         7.8902600000        1.0233130000        8.0402000000
  O        25.7016640000       -4.3123820000        3.1479500000
  H        24.9016860000       -4.6667350000        3.5561120000
  H        25.3569050000       28.3270070000        2.4915060000
  O         1.4626010000       12.6329370000        3.2390410000
  H         2.0928970000       12.0208760000        2.8234010000
  H         2.0066710000       12.9747230000        3.9875500000
  O         5.2672980000        2.3662890000       -3.5200720000
  H         5.5908570000        2.9268770000       -4.2379090000
  H         4.4032860000        2.8140200000       -3.3693310000
  O        12.1549410000        4.5799100000        8.7671790000
  H        11.4343380000        4.5869150000        8.1130390000
  H        12.9040130000        3.9700360000        8.5005040000
  O        14.2209560000        5.6648260000       -9.8807610000
  H        14.5984620000        6.2450880000       -9.1914690000
  H        13.6197040000        6.2870960000      -10.3423550000
  O        -1.6343300000       14.1183990000      -12.0570040000
  H        -2.0137350000       14.8381710000      -12.5585880000
  H        -1.8099580000       13.3446290000      -12.5977550000
  O        20.2868480000        3.9557060000        1.8039250000
  H        20.2216930000        4.8483210000        1.4345370000
  H        19.6924300000        3.4498050000        1.2252830000
  O         5.1448330000       -2.5444120000       -5.9474090000
  H         4.3705090000       -2.1892460000       -5.4145780000
  H         5.2374420000       -1.8961410000       -6.6661240000
  O        15.7134080000        1.2098230000        9.2464440000
  H        15.1900800000        0.4170510000        8.8794980000
  H        16.6028860000        0.7502150000        9.1434640000
  O         5.8623060000       19.4570940000        1.2048720000
  H         6.4363720000       19.2798980000        1.9794980000
  H         6.0145110000       20.3984360000        1.1163460000
  O         4.9323160000       20.5035550000        9.5071210000
  H         4.1168680000       20.8852210000        9.8128320000
  H         5.5391530000       20.6618610000       10.2219010000
  O        16.2830680000       -1.4102730000       -1.8651750000
  H        15.6064080000       -2.0333580000       -2.1849460000
  H        16.4063050000       -0.9086550000       -2.7136610000
  O         9.1886910000       25.7009560000       -8.1737170000
  H         9.6092760000       -5.4075710000       -8.3577260000
  H         8.3315830000       -5.9373310000       -7.7989010000
  O         1.4489680000       17.1222360000      -12.4441370000
  H         0.9011190000       16.4563920000      -12.9102240000
  H         0.7839720000       17.5307030000      -11.8625470000
  O        -0.7244250000       -5.9342600000        0.4055800000
  H        -0.0743740000       -5.9626530000        1.1053480000
  H        -0.6144160000       -5.0399250000        0.0130980000
  O         5.8831220000        7.3082340000      -14.6060420000
  H         6.7563280000        6.8373420000      -14.6290190000
  H         5.9257870000        7.7983060000      -15.4597330000
  O        23.0142840000        1.4217480000       -2.7041840000
  H        23.1027450000        2.4027440000       -2.7851240000
  H        23.2062970000        1.1755830000       -3.6372280000
  O        13.8964600000        5.7808860000       -5.6828090000
  H        13.0923460000        6.3678950000       -5.6621120000
  H        14.5476510000        6.4916000000       -5.7464750000
  O        16.1681750000       11.7724480000        3.7073230000
  H        17.0648420000       12.1095910000        3.5291620000
  H        16.2524910000       10.9830250000        4.3340740000
  O        26.4331400000       -7.3275060000       -1.2802770000
  H        26.4487760000       23.8675330000       -0.7052180000
  H        27.2827430000       -6.9596200000       -0.9247120000
  O         2.4594190000        2.8796980000       -3.0240760000
  H         2.6451820000        3.0043000000       -2.0730840000
  H         1.4885980000        2.9741860000       -3.0380730000
  O        21.3617480000       20.6847230000       -5.4165020000
  H        21.6557480000       21.6022990000       -5.1493870000
  H        21.0706410000       20.3764170000       -4.5252610000
  O         0.3682280000       -5.8856870000       -2.8580650000
  H        -0.3236440000       -6.5233070000       -2.7860880000
  H         0.7434820000       -5.9421050000       -1.9813720000
  O         7.3372860000        4.4046930000        2.7378060000
  H         7.4487480000        4.6060920000        1.8074010000
  H         6.3673050000        4.3748930000        2.8173310000
  O        27.4983980000        3.4904040000        4.7878420000
  H        27.0504110000        3.1444910000        4.0001180000
  H        27.5146010000        4.4497770000        4.6024350000
  O        13.2469760000       19.7473010000        4.8726300000
  H        13.2504400000       18.9715560000        4.2695110000
  H        13.8341630000       19.5414120000        5.6052300000
  O        -3.0199020000       15.3641880000       -1.0426860000
  H        -2.4176530000       16.0779190000       -1.2997100000
  H        -3.0710950000       15.5349610000       -0.0808230000
  O         7.6954110000       17.1325990000       10.3737020000
  H         7.4408450000       17.2790700000       11.3432330000
  H         8.6436250000       16.6935060000       10.3664490000
  O         7.8163120000       25.5690480000       -4.9466290000
  H         7.4812250000       26.2086700000       -5.5991130000
  H         8.4039500000       26.0907550000       -4.4067150000
  O        27.4601540000       24.6720680000      -12.3578210000
  H        27.4132560000       23.7014520000      -12.6397470000
  H        -5.5197180000       24.8573360000      -12.3775560000
  O        -1.4424960000       25.6753480000       -8.2963710000
  H        -2.2314130000       25.2195950000       -7.9263850000
  H        -1.4796720000       25.3449420000       -9.2090520000
  O        -0.2804120000        1.2454430000        4.5766090000
  H        -1.0776990000        1.3347750000        5.1924270000
  H        -0.5060600000        1.9989030000        3.9476020000
  O        18.7674240000       -4.2038600000       -1.7560950000
  H        17.9287930000       -4.4393900000       -2.2416610000
  H        18.4093890000       -3.5234260000       -1.1811570000
  O        16.5781290000       25.5996740000      -11.9056080000
  H        17.3322280000       25.0706060000      -12.0918470000
  H        16.4068980000       25.3574850000      -10.9994170000
  O        10.9222150000       10.1063390000        0.2314770000
  H        10.4527470000        9.6207490000        0.9389310000
  H        10.1614730000       10.6204960000       -0.1176370000
  O        -3.9058870000       20.2197090000        5.4516260000
  H        -3.2199720000       20.3165040000        6.0226550000
  H        -4.6649720000       20.7068500000        5.8188430000
  O         3.3807820000       24.5855160000        4.6441410000
  H         4.0650540000       24.3749240000        5.2737030000
  H         2.5540350000       24.3736310000        5.0626780000
  O        15.7081170000        2.5633180000      -14.4186680000
  H        15.2238180000        3.4182600000      -14.4829980000
  H        15.0058900000        1.9505520000      -14.7603220000
  O        -0.2884210000       16.6167950000       -7.2219310000
  H        -0.7349560000       16.7188630000       -6.3471510000
  H        -0.9091700000       16.0560590000       -7.6790930000
  O        21.1653840000        6.7941920000       -3.0696200000
  H        20.4101960000        7.2244870000       -2.5112850000
  H        21.8999810000        7.3126770000       -2.7521660000
  O        12.7879180000        0.8722210000      -12.2228520000
  H        13.7160250000        0.9830400000      -12.5037200000
  H        12.2997260000        0.8417400000      -13.0539650000
  O        27.0440880000       -1.2618140000       -7.2129090000
  H        27.0441670000       -1.8318140000       -8.0342640000
  H        28.0050510000       -0.9585350000       -7.2592430000
  O        11.5500480000        5.5873860000        5.1735810000
  H        11.5224900000        4.6317850000        5.4330540000
  H        12.4376410000        5.8744230000        5.5397460000
  O        21.4184440000       18.4241770000      -11.4820980000
  H        20.8854080000       19.2073840000      -11.1671360000
  H        22.3299410000       18.8653850000      -11.4661770000
  O        16.3573860000       12.8762200000      -11.1314020000
  H        15.8154880000       13.2757530000      -11.8209930000
  H        16.8550590000       13.6437070000      -10.7928170000
  O        19.4511470000        7.8079920000        9.3843110000
  H        19.9651910000        7.0178940000        9.0975750000
  H        20.0506360000        8.3948100000        8.8339960000
  O        26.9817310000       13.1056360000        6.3604450000
  H        26.3977850000       13.2838790000        5.5944640000
  H        27.3604850000       14.0116910000        6.4665350000
  O         7.1281850000       -2.5153570000      -13.1352760000
  H         6.6535600000       -2.8837010000      -12.3289090000
  H         6.3470640000       -2.2366870000      -13.6511550000
  O         1.7324830000       19.6871600000       -0.5056160000
  H         2.1419490000       19.0525840000        0.0935270000
  H         1.2552590000       20.2722510000        0.0867170000
  O         9.9293860000        1.7865780000        0.5540630000
  H         9.6661710000        2.4400930000        1.2370830000
  H        10.5020910000        2.3897730000        0.0506880000
  O        10.0891170000       16.6578790000       -5.9559510000
  H         9.8233840000       16.9911990000       -5.0519400000
  H        10.1939230000       17.5732290000       -6.3403470000
  O        14.8025430000       12.8576170000       12.9663850000
  H        14.1913760000       12.6229800000       13.6432580000
  H        15.2574730000       11.9821830000       12.9690350000
  O        11.3315100000       10.6814760000      -10.9545260000
  H        11.0193930000       11.6235140000      -10.8463700000
  H        10.4850430000       10.2117990000      -10.9579880000
  O        21.7588580000       13.9066250000       -8.4591950000
  H        22.5415130000       13.9967260000       -9.0263850000
  H        21.6725540000       14.9178150000       -8.2859270000