#     Step Nr.          Time[fs]        Kin.[a.u.]          Temp[K]            Pot.[a.u.]   
         0            0.000000         3.844830508       300.000000000     -1262.748289772  
         1            1.000000         3.601178012       280.988564101     -1262.427083860  
         2            2.000000         3.549769288       276.977303444     -1262.360031172  
         3            3.000000         3.715357879       289.897659043     -1262.491688697  
         4            4.000000         3.759154599       293.314978981     -1262.342959415  
         5            5.000000         4.058047160       316.636622945     -1262.596418709  
         6            6.000000         4.070706251       317.624371939     -1262.472931516  
         7            7.000000         4.151884226       323.958433328     -1262.381634716  
         8            8.000000         4.566566888       356.314813742     -1262.749017984  
         9            9.000000         4.559662196       355.776062365     -1262.520215810  
        10           10.000000         4.611295339       359.804833719     -1262.455902839  
        11           11.000000         4.720878873       368.355291281     -1262.474304006  
        12           12.000000         4.772728865       372.400982641     -1262.353677032  
        13           13.000000         5.171142349       403.487930407     -1262.728368533  
        14           14.000000         5.176634019       403.916428135     -1262.656982123  
        15           15.000000         5.074214963       395.924992209     -1262.462592687  
        16           16.000000         5.255446596       410.065924982     -1262.738520924  
        17           17.000000         5.140104272       401.066127141     -1262.589563343  
        18           18.000000         5.124975634       399.885687291     -1262.628496520  
        19           19.000000         4.989692613       389.329979757     -1262.558509715  
        20           20.000000         4.735543878       369.499555367     -1262.303863769  
        21           21.000000         4.960814033       387.076675212     -1262.718629888  
        22           22.000000         4.891931825       381.702013764     -1262.729899682  
        23           23.000000         4.648208880       362.685080928     -1262.605892339  
        24           24.000000         4.576036852       357.053725189     -1262.698245634  
        25           25.000000         4.329305171       337.802030170     -1262.475392236  
        26           26.000000         4.387512502       342.343764660     -1262.696376947  
        27           27.000000         4.302833374       335.736519293     -1262.684371838  
        28           28.000000         3.967939940       309.605840723     -1262.372894966  
        29           29.000000         4.094821308       319.505993753     -1262.651038418  
        30           30.000000         4.100505196       319.949489635     -1262.695348551  
        31           31.000000         4.050755038       316.067641706     -1262.690815497  
        32           32.000000         4.033103666       314.690360796     -1262.737085813  
        33           33.000000         3.760494691       293.419542160     -1262.360796519  
        34           34.000000         3.960010138       308.987103326     -1262.625522324  
        35           35.000000         4.151264822       323.910103143     -1262.763385647  
        36           36.000000         4.008646409       312.782038124     -1262.483664970  
        37           37.000000         4.136078958       322.725198101     -1262.572556631  
        38           38.000000         4.145247161       323.440564041     -1262.496033887  
        39           39.000000         4.294796221       335.109405573     -1262.545961201  
        40           40.000000         4.492682430       350.549842443     -1262.714228522  
        41           41.000000         4.256798404       332.144555795     -1262.279192611  
        42           42.000000         4.407247362       343.883613525     -1262.361073516  
        43           43.000000         4.679531858       365.129114141     -1262.586846687  
        44           44.000000         4.736868923       369.602944471     -1262.534903301  
        45           45.000000         4.897348180       382.124634845     -1262.672430756  
        46           46.000000         4.727898927       368.903043946     -1262.350415618  
        47           47.000000         4.778238146       372.830854504     -1262.364160775  
        48           48.000000         5.030837864       392.540413892     -1262.689052776  
        49           49.000000         4.812517825       375.505589745     -1262.406045606  
        50           50.000000         4.768497210       372.070799941     -1262.419821876  
        51           51.000000         4.765520276       371.838519191     -1262.460295884  
        52           52.000000         4.749593663       370.595815856     -1262.515032450  
        53           53.000000         4.919007547       383.814646978     -1262.820523544  
        54           54.000000         4.600390818       358.953988333     -1262.540427617  
        55           55.000000         4.392146621       342.705350339     -1262.386054757  
        56           56.000000         4.510679130       351.954068257     -1262.687086834  
        57           57.000000         4.362948769       340.427134050     -1262.526836316  
        58           58.000000         4.343816357       338.934292228     -1262.620667900  
        59           59.000000         4.161556916       324.713162770     -1262.506808641  
        60           60.000000         3.999658124       312.080710605     -1262.356955809  
        61           61.000000         4.254482623       331.963862717     -1262.779403839  
        62           62.000000         4.106793157       320.440119385     -1262.617655833  
        63           63.000000         3.936709751       307.169047561     -1262.439441532  
        64           64.000000         3.987456841       311.128682985     -1262.540827067  
        65           65.000000         3.947085238       307.978614078     -1262.416976399  
        66           66.000000         4.200140525       327.723720135     -1262.727752574  
        67           67.000000         4.155483221       324.239251565     -1262.645072325  
        68           68.000000         3.962721179       309.198637255     -1262.338260822  
        69           69.000000         4.216084644       328.967789438     -1262.611919344  
        70           70.000000         4.260238983       332.413013292     -1262.542580146  
        71           71.000000         4.307000687       336.061681604     -1262.489957592  
        72           72.000000         4.353170418       339.664160122     -1262.482371141  
        73           73.000000         4.236071151       330.527273611     -1262.222006932  
        74           74.000000         4.568519181       356.467145025     -1262.527257708  
        75           75.000000         4.700960469       366.801121023     -1262.621349534  
        76           76.000000         4.558218700       355.663430952     -1262.370805209  
        77           77.000000         4.672129136       364.551503094     -1262.519111633  
        78           78.000000         4.624206970       360.812287589     -1262.452248196  
        79           79.000000         4.738735458       369.748584338     -1262.570176951  
        80           80.000000         4.789527359       373.711716193     -1262.567465483  
        81           81.000000         4.510607265       351.948460833     -1262.166163608  
        82           82.000000         4.652493254       363.019377127     -1262.413875191  
        83           83.000000         4.727091196       368.840019303     -1262.518356255  
        84           84.000000         4.606246980       359.410926168     -1262.396127857  
        85           85.000000         4.601291086       359.024233439     -1262.474741598  
        86           86.000000         4.350638287       339.466585907     -1262.205437625  
        87           87.000000         4.400777838       343.378816980     -1262.340852121  
        88           88.000000         4.493369310       350.603437577     -1262.541182344  
        89           89.000000         4.185807427       326.605353703     -1262.202765259  
        90           90.000000         4.176060213       325.844809309     -1262.300142782  
        91           91.000000         4.153199423       324.061053977     -1262.324280775  
        92           92.000000         4.138760495       322.934429997     -1262.322497260  
        93           93.000000         4.249103274       331.544129014     -1262.558226426  
        94           94.000000         3.971173921       309.858178111     -1262.238149044  
        95           95.000000         3.986352186       311.042490254     -1262.292450965  
        96           96.000000         4.184083455       326.470837624     -1262.554196847  
        97           97.000000         4.073774626       317.863787548     -1262.382040048  
        98           98.000000         4.123401612       321.736024759     -1262.465298022  
        99           99.000000         4.027302108       314.237683486     -1262.346145707  
       100          100.000000         4.047435654       315.808640592     -1262.360756366  
       101          101.000000         4.319446479       337.032787536     -1262.650639968  
       102          102.000000         4.160603204       324.638747678     -1262.385454243  
       103          103.000000         4.130629053       322.299959216     -1262.312650358  
       104          104.000000         4.261837165       332.537714400     -1262.486236855  
       105          105.000000         4.269349069       333.123844552     -1262.419167808  
       106          106.000000         4.471462341       348.894105832     -1262.654643188  
       107          107.000000         4.352696623       339.627191399     -1262.443922434  
       108          108.000000         4.270042981       333.177988347     -1262.288004935  
       109          109.000000         4.543069406       354.481379297     -1262.608534812  
       110          110.000000         4.498170949       350.978094315     -1262.489141514  
       111          111.000000         4.505835136       351.576106655     -1262.520221355  
       112          112.000000         4.503522753       351.395678667     -1262.529834904  
       113          113.000000         4.414443287       344.445088844     -1262.382812312  
       114          114.000000         4.659447527       363.561997125     -1262.722939435  
       115          115.000000         4.566527569       356.311745796     -1262.606504078  
       116          116.000000         4.365417675       340.619774968     -1262.342986573  
       117          117.000000         4.460579493       348.044951492     -1262.523527873  
       118          118.000000         4.367740001       340.800978715     -1262.418385550  
       119          119.000000         4.418340350       344.749164417     -1262.533300350  
       120          120.000000         4.345762591       339.086150702     -1262.556245026  
       121          121.000000         4.108200145       320.549902252     -1262.308641561  
       122          122.000000         4.286295031       334.446084585     -1262.620716802  
       123          123.000000         4.272016529       333.331978062     -1262.626881414  
       124          124.000000         4.130453275       322.286243805     -1262.501723466  
       125          125.000000         4.124373429       321.811852582     -1262.579638585  
       126          126.000000         3.962906029       309.213060551     -1262.349315467  
       127          127.000000         4.111179214       320.782349566     -1262.608095840  
       128          128.000000         4.160712389       324.647267049     -1262.694201645  
       129          129.000000         3.934468579       306.994175999     -1262.394590501  
       130          130.000000         4.063538274       317.065077240     -1262.562104992  
       131          131.000000         4.101796357       320.050234822     -1262.588926808  
       132          132.000000         4.132462125       322.442988035     -1262.654019103  
       133          133.000000         4.208630925       328.386199312     -1262.768810315  
       134          134.000000         3.998997434       312.029159041     -1262.410586756  
       135          135.000000         4.147326372       323.602798338     -1262.573436380  
       136          136.000000         4.344234883       338.966948534     -1262.730631682  
       137          137.000000         4.261521786       332.513106355     -1262.543461355  
       138          138.000000         4.361214613       340.291823255     -1262.666383976  
       139          139.000000         4.307106840       336.069964419     -1262.550826929  
       140          140.000000         4.376432878       341.479256533     -1262.585061937  
       141          141.000000         4.555850555       355.478652101     -1262.779982927  
       142          142.000000         4.351947677       339.568753489     -1262.468629361  
       143          143.000000         4.393615314       342.819947830     -1262.534595205  
       144          144.000000         4.506836724       351.654257392     -1262.667952611  
       145          145.000000         4.468378097       348.653451983     -1262.588527588  
       146          146.000000         4.571109771       356.669280569     -1262.763726030  
       147          147.000000         4.381039462       341.838693735     -1262.545171931  
       148          148.000000         4.325256614       337.486134012     -1262.488798632  
       149          149.000000         4.480436535       349.594333887     -1262.711020067  
       150          150.000000         4.289711714       334.712677541     -1262.494897439  
       151          151.000000         4.257501536       332.199418984     -1262.548991414  
       152          152.000000         4.214387336       328.835353856     -1262.535484741  
       153          153.000000         4.116833659       321.223548076     -1262.430552925  
       154          154.000000         4.260863116       332.461712396     -1262.688024415  
       155          155.000000         4.066091510       317.264298198     -1262.484263223  
       156          156.000000         3.928526402       306.530526631     -1262.347441245  
       157          157.000000         4.045562320       315.662470264     -1262.482509819  
       158          158.000000         3.951480963       308.321598646     -1262.355370259  
       159          159.000000         4.016205457       313.371846805     -1262.509356568  
       160          160.000000         3.978529178       310.432085566     -1262.520422767  
       161          161.000000         3.885692825       303.188357712     -1262.375221354  
       162          162.000000         4.119139165       321.403439482     -1262.656296674  
       163          163.000000         4.066649550       317.307840300     -1262.537756207  
       164          164.000000         4.004767299       312.479363422     -1262.467790304  
       165          165.000000         4.113479802       320.961857204     -1262.582347567  
       166          166.000000         4.082809389       318.568741622     -1262.477346090  
       167          167.000000         4.286865195       334.490572635     -1262.719191087  
       168          168.000000         4.306058370       335.988155570     -1262.716982102  
       169          169.000000         4.180154122       326.164244150     -1262.502272720  
       170          170.000000         4.382003058       341.913880105     -1262.741682016  
       171          171.000000         4.377512246       341.563476198     -1262.671201181  
       172          172.000000         4.372518253       341.173810683     -1262.619202912  
       173          173.000000         4.415286870       344.510910991     -1262.720218588  
       174          174.000000         4.281639285       334.082811352     -1262.529552447  
       175          175.000000         4.469381020       348.731706962     -1262.765452577  
       176          176.000000         4.521773313       352.819712369     -1262.827048997  
       177          177.000000         4.351439495       339.529101684     -1262.622049851  
       178          178.000000         4.405054075       343.712478261     -1262.739980614  
       179          179.000000         4.307826769       336.126138191     -1262.625916202  
       180          180.000000         4.329827250       337.842766354     -1262.647563842  
       181          181.000000         4.371346757       341.082402530     -1262.794790911  
       182          182.000000         4.142134562       323.197697748     -1262.520840346  
       183          183.000000         4.226147247       329.752942614     -1262.687492328  
       184          184.000000         4.271844875       333.318584436     -1262.772970981  
       185          185.000000         4.158589381       324.481615435     -1262.671092066  
       186          186.000000         4.178419824       326.028922316     -1262.781334795  
       187          187.000000         4.003176475       312.355236482     -1262.592181553  
       188          188.000000         4.045688344       315.672303485     -1262.645427070  
       189          189.000000         4.183297544       326.409515436     -1262.793531088  
       190          190.000000         4.017853713       313.500455018     -1262.576208135  
       191          191.000000         4.056614995       316.524875669     -1262.632951362  
       192          192.000000         4.069791613       317.553005588     -1262.627456640  
       193          193.000000         4.052409743       316.196753053     -1262.561159840  
       194          194.000000         4.175113021       325.770902946     -1262.742645282  
       195          195.000000         4.002144491       312.274713973     -1262.491301435  
       196          196.000000         4.011941400       313.039135929     -1262.520608154  
       197          197.000000         4.190355265       326.960207127     -1262.719450615  
       198          198.000000         4.135325347       322.666396233     -1262.571456647  
       199          199.000000         4.218294287       329.140200969     -1262.649592170  
       200          200.000000         4.169016819       325.295235516     -1262.558317246  
       201          201.000000         4.141675387       323.161869757     -1262.506366666  
       202          202.000000         4.344618915       338.996913324     -1262.773847963  
       203          203.000000         4.237442510       330.634276381     -1262.646819938  
       204          204.000000         4.202199260       327.884356739     -1262.612208915  
       205          205.000000         4.286530384       334.464448413     -1262.742453048  
       206          206.000000         4.246325499       331.327388036     -1262.595433614  
       207          207.000000         4.385246678       342.166969557     -1262.768134821  
       208          208.000000         4.302859655       335.738569923     -1262.681823957  
       209          209.000000         4.180386431       326.182370519     -1262.514722545  
       210          210.000000         4.323174467       337.323670649     -1262.743288707  
       211          211.000000         4.244300734       331.169402018     -1262.658618495  
       212          212.000000         4.219044130       329.198708799     -1262.696702188  
       213          213.000000         4.202834859       327.933950499     -1262.725180883  
       214          214.000000         4.068804292       317.475968087     -1262.547076972  
       215          215.000000         4.215710810       328.938620380     -1262.793106150  
       216          216.000000         4.179974910       326.150260786     -1262.754183741  
       217          217.000000         4.046870465       315.764540705     -1262.594972923  
       218          218.000000         4.120131267       321.480850051     -1262.725871668  
       219          219.000000         4.035850741       314.904706418     -1262.605937598  
       220          220.000000         4.087509915       318.935508846     -1262.691500225  
       221          221.000000         4.107044079       320.459698060     -1262.716222422  
       222          222.000000         3.952667181       308.414155498     -1262.491574378  
       223          223.000000         4.089835195       319.116943070     -1262.697605617  
       224          224.000000         4.102321905       320.091241691     -1262.705113255  
       225          225.000000         4.034446809       314.795161981     -1262.638838442  
       226          226.000000         4.106105592       320.386470870     -1262.755319622  
       227          227.000000         3.999668576       312.081526165     -1262.594206448  
       228          228.000000         4.088085455       318.980416416     -1262.688393984  
       229          229.000000         4.164710308       324.959212004     -1262.803214423  
       230          230.000000         4.037519077       315.034881393     -1262.607859744  
       231          231.000000         4.149155497       323.745519176     -1262.724591960  
       232          232.000000         4.170300654       325.395409093     -1262.732255228  
       233          233.000000         4.169627310       325.342870185     -1262.702321018  
       234          234.000000         4.254881340       331.994973286     -1262.812665040  
       235          235.000000         4.111558786       320.811966420     -1262.618265865  
       236          236.000000         4.179918878       326.145888819     -1262.702890796  
       237          237.000000         4.288636866       334.628810524     -1262.835219069  
       238          238.000000         4.202005696       327.869253594     -1262.715383660  
       239          239.000000         4.271744142       333.310724607     -1262.827874574  
       240          240.000000         4.208969477       328.412615416     -1262.708589563  
       241          241.000000         4.183710522       326.441738835     -1262.670836989  
       242          242.000000         4.269976823       333.172826219     -1262.858616704  
       243          243.000000         4.101205357       320.004120970     -1262.651381639  
       244          244.000000         4.108438964       320.568536515     -1262.698820178  
       245          245.000000         4.176729899       325.897062789     -1262.800948982  
       246          246.000000         4.113057338       320.928893677     -1262.773479650  
       247          247.000000         4.193518956       327.207060035     -1262.914002472  
       248          248.000000         4.090222316       319.147148924     -1262.797277168  
       249          249.000000         4.044281865       315.562560431     -1262.754233382  
       250          250.000000         4.154607939       324.170956022     -1262.958864005  
       251          251.000000         4.012749123       313.102159976     -1262.779421450  
       252          252.000000         3.999595931       312.075857857     -1262.729204351  
       253          253.000000         4.024712209       314.035601853     -1262.770749699  
       254          254.000000         3.988713845       311.226763009     -1262.703499880  
       255          255.000000         4.138868989       322.942895431     -1262.899734772  
       256          256.000000         4.060277330       316.810636104     -1262.796762449  
       257          257.000000         3.984810882       310.922227144     -1262.688478493  
       258          258.000000         4.089803061       319.114435753     -1262.824375134  
       259          259.000000         4.023521040       313.942658705     -1262.743347534  
       260          260.000000         4.071944954       317.721024001     -1262.750798179  
       261          261.000000         4.068795041       317.475246246     -1262.777845744  
       262          262.000000         3.988673885       311.223645074     -1262.664227938  
       263          263.000000         4.140614086       323.079059793     -1262.881957556  
       264          264.000000         4.101295967       320.011190963     -1262.813826543  
       265          265.000000         4.030408148       314.480038036     -1262.700253462  
       266          266.000000         4.079589650       318.317515487     -1262.778743700  
       267          267.000000         4.005916966       312.569068302     -1262.659523995  
       268          268.000000         4.103905428       320.214798992     -1262.760452722  
       269          269.000000         4.117491168       321.274851463     -1262.764820438  
       270          270.000000         3.999176852       312.043158488     -1262.630835367  
       271          271.000000         4.097185839       319.690490634     -1262.812008882  
       272          272.000000         4.058539893       316.675069387     -1262.742621749  
       273          273.000000         4.017980689       313.510362578     -1262.695508149  
       274          274.000000         4.049392148       315.961299656     -1262.780706194  
       275          275.000000         3.942220240       307.599013682     -1262.631681011  
       276          276.000000         4.054587519       316.366678057     -1262.728120397  
       277          277.000000         4.112477001       320.883611789     -1262.848175874  
       278          278.000000         4.008809714       312.794780330     -1262.712759100  
       279          279.000000         4.067206610       317.351305925     -1262.808441292  
       280          280.000000         4.004455725       312.455052294     -1262.751967819  
       281          281.000000         3.999999243       312.107327020     -1262.757533198  
       282          282.000000         4.061573885       316.911802167     -1262.833596161  
       283          283.000000         3.941699373       307.558372038     -1262.680924679  
       284          284.000000         4.016621171       313.404283660     -1262.790734592  
       285          285.000000         4.074614412       317.929313362     -1262.878862672  
       286          286.000000         4.006468858       312.612130725     -1262.799097584  
       287          287.000000         4.050088664       316.015646631     -1262.899376801  
       288          288.000000         3.944441018       307.772293946     -1262.757270615  
       289          289.000000         3.940075088       307.431634195     -1262.763509977  
       290          290.000000         4.031824024       314.590514362     -1262.891278418  
       291          291.000000         3.935978824       307.112015604     -1262.728316106  
       292          292.000000         3.992540831       311.525370663     -1262.815181367  
       293          293.000000         4.021308001       313.769982276     -1262.853421785  
       294          294.000000         3.970607793       309.814004880     -1262.759910184  
       295          295.000000         4.045217302       315.635549634     -1262.892277154  
       296          296.000000         3.948546220       308.092609915     -1262.756482801  
       297          297.000000         3.946363218       307.922277138     -1262.731382530  
       298          298.000000         4.066067974       317.262461763     -1262.857181684  
       299          299.000000         4.015409861       313.309768987     -1262.699651651  
       300          300.000000         4.072023257       317.727133733     -1262.730665230  
       301          301.000000         4.074629216       317.930468536     -1262.695488741  
       302          302.000000         4.037125693       315.004186845     -1262.633801703  
       303          303.000000         4.143213939       323.281918175     -1262.800768603  
       304          304.000000         4.060648162       316.839570917     -1262.675474204  
       305          305.000000         4.038519216       315.112919102     -1262.640524889  
       306          306.000000         4.130006735       322.251401637     -1262.764910869  
       307          307.000000         4.085201716       318.755407313     -1262.687922030  
       308          308.000000         4.138611771       322.922825493     -1262.829910111  
       309          309.000000         4.078087074       318.200274261     -1262.780464251  
       310          310.000000         3.968688826       309.664273982     -1262.599549293  
       311          311.000000         4.046469014       315.733216760     -1262.723062250  
       312          312.000000         3.971175538       309.858304245     -1262.627358350  
       313          313.000000         3.941229925       307.521742484     -1262.615545003  
       314          314.000000         3.979110420       310.477438056     -1262.609593072  
       315          315.000000         3.906205671       304.788910402     -1262.482522561  
       316          316.000000         3.982865306       310.770419994     -1262.625449905  
       317          317.000000         3.946485012       307.931780365     -1262.619628351  
       318          318.000000         3.835324914       299.258308468     -1262.502998414  
       319          319.000000         3.913839321       305.384540065     -1262.639326270  
       320          320.000000         3.886540180       303.254474190     -1262.597558363  