#     Step Nr.          Time[fs]        Kin.[a.u.]          Temp[K]            Pot.[a.u.]        Cons Qty[a.u.]        UsedTime[s]
         0            0.000000         3.850530776       300.000000000     -1296.823855705     -1292.972849907         0.000000000
         1            1.000000         3.454078806       269.111897097     -1296.333523984     -1292.878167726        42.939822905
         2            2.000000         4.540918954       353.789065843     -1297.717803819     -1293.174772412        12.152055990
         3            3.000000         4.302964276       335.249698811     -1297.172757587     -1292.866638627        11.562625248
         4            4.000000         4.495927179       350.283696539     -1297.508075177     -1293.007839049        11.502349935
         5            5.000000         4.003984310       311.955769991     -1296.981658269     -1292.972128317        12.222933549
         6            6.000000         3.531652712       275.155783777     -1296.276001086     -1292.737674497        12.256585445
         7            7.000000         4.794981536       373.583421213     -1297.947373035     -1293.144490852        11.522909988
         8            8.000000         4.250989325       331.200260841     -1297.136044994     -1292.875658926        11.562450882
         9            9.000000         3.650137359       284.387081024     -1296.436016469     -1292.775093669        11.557384454
        10           10.000000         4.100511105       319.476301618     -1297.117366786     -1293.004722072        12.062330417
        11           11.000000         3.929222931       306.131010998     -1296.679180492     -1292.736392444        11.555150948
        12           12.000000         4.760709513       370.913242100     -1297.790866515     -1293.014995004        11.569791827
        13           13.000000         4.284973769       333.848034328     -1297.251010888     -1292.949043928        11.569549959
        14           14.000000         3.236500580       252.160086634     -1295.906883612     -1292.651795843        12.245130543
        15           15.000000         4.250366681       331.151749884     -1297.294970479     -1293.024502878        12.157173865
        16           16.000000         4.247566387       330.933575168     -1297.134280725     -1292.864837145        12.222745519
        17           17.000000         4.164032473       324.425336322     -1297.029147793     -1292.841399058        12.197182782
        18           18.000000         4.236687171       330.085960941     -1297.269256749     -1293.006947821        11.549174469
        19           19.000000         3.528050773       274.875151933     -1296.203308197     -1292.647821050        11.535863731
        20           20.000000         4.630277018       360.751072049     -1297.628667578     -1292.969071910        11.592932168
        21           21.000000         4.696440644       365.905968600     -1297.718876569     -1292.990816461        12.081315558
        22           22.000000         3.559294608       277.309400869     -1296.276038864     -1292.682948901        12.108751193
        23           23.000000         4.024576160       313.560108560     -1297.054278996     -1292.993933423        12.195334375
        24           24.000000         3.939234490       306.911024933     -1296.768988383     -1292.791899003        12.146827303
        25           25.000000         4.469918836       348.257351725     -1297.385115951     -1292.875113972        12.169124719
        26           26.000000         4.750323855       370.104081622     -1297.877564103     -1293.084586785        12.064078405
        27           27.000000         3.464004728       269.885238925     -1296.185206430     -1292.676125290        12.106966347
        28           28.000000         4.108928652       320.132123949     -1297.107322801     -1292.951126450        12.151190445
        29           29.000000         4.474434902       348.609204513     -1297.526814279     -1293.002594839        12.120395120
        30           30.000000         3.865355659       301.155026424     -1296.693955091     -1292.776282187        11.497026693
        31           31.000000         4.075565122       317.532726753     -1297.191722868     -1293.061424576        12.217793487
        32           32.000000         3.420832649       266.521644534     -1296.278308486     -1292.800459500        12.155754838
        33           33.000000         4.070783309       317.160169301     -1297.018587263     -1292.888581805        12.137985989
        34           34.000000         4.863388009       378.913060992     -1298.070178068     -1293.144906222        12.208264649
        35           35.000000         3.621427378       282.150247978     -1296.438106439     -1292.752133941        11.517094601
        36           36.000000         3.704559336       288.627169958     -1296.740350741     -1292.968986223        11.551893987
        37           37.000000         3.814789285       297.215332684     -1296.869262528     -1292.985405087        11.591336809
        38           38.000000         3.789893049       295.275633671     -1296.698853284     -1292.837643767        12.133609194
        39           39.000000         4.454309276       347.041190084     -1297.685731673     -1293.157696288        12.229775406
        40           40.000000         3.436807906       267.766298133     -1296.338522782     -1292.825635698        11.503261980
        41           41.000000         3.665749689       285.603458546     -1296.612266448     -1292.868400036        12.125984110
        42           42.000000         4.654820918       362.663320100     -1297.897280188     -1293.162010384        12.104690827
        43           43.000000         3.899101785       303.784232282     -1296.822951527     -1292.840915213        12.097974677
        44           44.000000         3.883863466       302.596994434     -1297.003154386     -1293.034103647        11.572673783
        45           45.000000         3.412984219       265.910162879     -1296.444874477     -1292.944631128        11.562871803
        46           46.000000         3.392356546       264.303033277     -1296.279257302     -1292.797811992        12.141928419
        47           47.000000         4.622449809       360.141243760     -1297.922045897     -1293.208454731        12.124241594
        48           48.000000         3.781713488       294.638353135     -1296.771392358     -1292.896315719        11.542331323
        49           49.000000         3.519390544       274.200421905     -1296.518378697     -1292.903730439        11.596741069
        50           50.000000         4.087148485       318.435201983     -1297.325450307     -1293.141155476        12.529834416
        51           51.000000         3.681408524       286.823459240     -1296.646491438     -1292.866022535        12.212474547
        52           52.000000         4.141279083       322.652589250     -1297.403190021     -1293.160976007        12.098335132
        53           53.000000         3.419055255       266.383165360     -1296.548656902     -1293.026863738        12.155369774
        54           54.000000         2.960631801       230.666781284     -1295.904778676     -1292.839983988        12.125767261
        55           55.000000         4.349785602       338.897610882     -1297.712435103     -1293.257018641        11.454580102
        56           56.000000         4.055399636       315.961606762     -1297.166019858     -1293.003272425        11.579057015
        57           57.000000         3.820778781       297.681982314     -1296.964298763     -1293.034555358        11.477561489
        58           58.000000         3.780725598       294.561385261     -1297.066963569     -1293.175748646        12.080517799
        59           59.000000         3.229114536       251.584630051     -1296.226828810     -1292.885872690        12.184139155
        60           60.000000         4.235926042       330.026660393     -1297.602823756     -1293.253733716        11.463288877
        61           61.000000         3.841984762       299.334168598     -1297.093722590     -1293.137129527        12.273011316
        62           62.000000         3.056237959       238.115584863     -1296.078777050     -1292.906732747        11.516276471
        63           63.000000         3.963399425       308.793747319     -1297.340967204     -1293.260680451        11.456408218
        64           64.000000         3.861201437       300.831365501     -1297.020041713     -1293.040774645        11.467333216
        65           65.000000         4.111265006       320.314152418     -1297.367736095     -1293.137220765        11.503179841
        66           66.000000         3.850375073       299.987869004     -1297.193911080     -1293.223088982        12.103722744
        67           67.000000         2.713250248       211.392953765     -1295.696054704     -1292.861406595        11.481951933
        68           68.000000         3.704777439       288.644162703     -1297.055433924     -1293.228502946        11.518446833
        69           69.000000         3.852142939       300.125605785     -1297.160539525     -1293.185416251        11.472026266
        70           70.000000         3.275624221       255.208261786     -1296.396827841     -1292.997475433        12.133252446
        71           71.000000         3.636211232       283.302077860     -1297.025624444     -1293.265059432        11.411131740
        72           72.000000         3.115502472       242.732962291     -1296.217282431     -1292.976881737        11.457887955
        73           73.000000         3.724366594       290.170379971     -1297.000051629     -1293.150355146        11.571618889
        74           74.000000         3.844732946       299.548283342     -1297.260447402     -1293.289951302        11.465879038
        75           75.000000         2.496997048       194.544377896     -1295.500839689     -1292.877748712        11.507036339
        76           76.000000         3.087632156       240.561548732     -1296.387744809     -1293.173902622        11.571247730
        77           77.000000         3.394622272       264.479558988     -1296.638068537     -1293.117233647        11.534337990
        78           78.000000         3.452297658       268.973125416     -1296.564452528     -1292.986024163        11.564082921
        79           79.000000         3.896473616       303.579468077     -1297.268044489     -1293.245592691        11.541270133
        80           80.000000         2.881533425       224.504121041     -1295.881042287     -1292.873689148        11.573173344
        81           81.000000         3.371232841       262.657257158     -1296.514198195     -1293.017419551        11.551953524
        82           82.000000         3.999993480       311.644839107     -1297.318783900     -1293.193646845        11.539110865
        83           83.000000         3.110796636       242.366324272     -1296.075373340     -1292.839819404        11.584349990
        84           84.000000         3.463541343       269.849135993     -1296.676796662     -1293.088950121        12.129112013
        85           85.000000         3.403277866       265.153927950     -1296.484222525     -1292.957179333        11.487052478
        86           86.000000         3.757249661       292.732343612     -1296.775927720     -1292.895539227        11.575873196
        87           87.000000         4.620612732       359.998114641     -1297.946327989     -1293.203300070        11.518318560
        88           88.000000         3.468737928       270.254008859     -1296.394732092     -1292.804161746        11.469701249
        89           89.000000         3.494895691       272.291995124     -1296.509113374     -1292.892919193        11.598849401
        90           90.000000         4.044887761       315.142612487     -1297.219303452     -1293.053742008        11.517560322
        91           91.000000         3.647641946       284.192660067     -1296.538761789     -1292.771058158        11.477882974
        92           92.000000         4.157493333       323.915863192     -1297.317439314     -1293.040512793        11.499364939
        93           93.000000         3.600252275       280.500467400     -1296.554588950     -1292.835484200        11.612493712
        94           94.000000         3.629477228       282.777422587     -1296.487031006     -1292.739266903        11.527452104
        95           95.000000         4.719882509       367.732355665     -1297.914517073     -1293.077007101        11.546956014
        96           96.000000         3.852414474       300.146761427     -1296.713467214     -1292.743959402        11.554378629
        97           97.000000         3.641586855       283.720899781     -1296.597531602     -1292.839292988        11.540808979
        98           98.000000         3.776315723       294.217806004     -1296.823030331     -1292.930525525        12.112688266
        99           99.000000         3.582116916       279.087517408     -1296.377413486     -1292.679581573        12.194285337
       100          100.000000         4.571614578       356.180602936     -1297.719306404     -1293.032518582        12.159413002
       101          101.000000         3.944666590       307.334247150     -1296.883371593     -1292.823979331        12.814074695
       102          102.000000         3.495663402       272.351808549     -1296.288860528     -1292.678833195        12.140116103
       103          103.000000         4.406074895       343.283184956     -1297.521075090     -1293.001052633        12.137107681
       104          104.000000         3.935032975       306.583679327     -1296.772255282     -1292.723628000        12.237238176
       105          105.000000         4.002878844       311.869641666     -1296.972457018     -1292.856283722        12.060430083
       106          106.000000         3.768404413       293.601425312     -1296.779609736     -1292.898178002        12.828468971
       107          107.000000         3.277782844       255.376442989     -1296.006479636     -1292.615928543        12.798027396
       108          108.000000         4.556528582       355.005232815     -1297.649700006     -1292.980759240        12.188184999
       109          109.000000         4.303286164       335.274777523     -1297.242244199     -1292.826827879        12.135597065
       110          110.000000         3.689240815       287.433683518     -1296.492951516     -1292.691747795        12.224930376
       111          111.000000         4.076446123       317.601366704     -1297.145838526     -1292.957596795        12.118540652
       112          112.000000         3.635819427       283.271551764     -1296.428087328     -1292.680612417        12.175020315
       113          113.000000         4.229822892       329.551155751     -1297.214391821     -1292.873071818        12.173378240
       114          114.000000         4.111848588       320.359620076     -1297.143388917     -1292.920147468        12.121364813
       115          115.000000         3.237721735       252.255228433     -1295.934077134     -1292.585020676        27.475417510
       116          116.000000         4.245288685       330.756116393     -1297.287501960     -1292.931011851        35.919181239
       117          117.000000         4.286872125       333.995937819     -1297.215696294     -1292.817711909        19.099678859
       118          118.000000         4.010402258       312.455800879     -1296.873556876     -1292.752043866        12.756409258
       119          119.000000         4.084766701       318.249634053     -1297.169714686     -1292.973795456        11.463581912
       120          120.000000         3.250918033       253.283369641     -1296.018395850     -1292.656263993        11.433229823
       121          121.000000         4.046606510       315.276522550     -1297.057100373     -1292.899296333        11.500561383
       122          122.000000         4.343857284       338.435727677     -1297.442213646     -1292.987146452        11.454133984
       123          123.000000         3.438022813       267.860953201     -1296.232245218     -1292.682932942        12.288405377
       124          124.000000         3.942938284       307.199592462     -1297.033619449     -1292.979362282        12.070476778
       125          125.000000         3.802671020       296.271182462     -1296.771863573     -1292.857840118        12.181946825
       126          126.000000         3.963028702       308.764863790     -1296.948532852     -1292.874120339        12.074393347
       127          127.000000         4.249876456       331.113555778     -1297.475529396     -1293.114208446        12.067106597
       128          128.000000         3.090147746       240.757541710     -1295.951386596     -1292.749698070        12.127022300
       129          129.000000         3.630285672       282.840409544     -1296.699288385     -1292.957472686        12.191092279
       130          130.000000         4.209449761       327.963857883     -1297.388571988     -1293.067646051        12.130245913
       131          131.000000         3.738218187       291.249576068     -1296.685896658     -1292.836210344        11.514783986
       132          132.000000         4.053866966       315.842194345     -1297.288818656     -1293.123493768        12.167651150
       133          133.000000         3.432414322       267.423988146     -1296.453997028     -1292.910117490        12.205970302
       134          134.000000         3.651803168       284.516866402     -1296.692649997     -1292.929433037        11.469253950
       135          135.000000         4.379562695       341.217583971     -1297.698521938     -1293.207630211        11.507067498
       136          136.000000         3.377154413       263.118614791     -1296.346315065     -1292.857851155        11.551206045
       137          137.000000         3.541445017       275.918715344     -1296.679055872     -1293.026377676        12.159339670
       138          138.000000         3.838048100       299.027458065     -1297.043952243     -1293.094807719        12.213576157
       139          139.000000         3.738203735       291.248450065     -1296.769150566     -1292.920001940        11.513010997
       140          140.000000         4.359695056       339.669669690     -1297.697438120     -1293.226963219        12.176292948
       141          141.000000         3.455327249       269.209164896     -1296.537614217     -1292.971602331        12.180566791
       142          142.000000         3.336324579       259.937507846     -1296.397890337     -1292.951015155        12.146020446
       143          143.000000         4.185818922       326.122747673     -1297.540262274     -1293.244118030        11.562491618
       144          144.000000         3.625428261       282.461962157     -1296.680444940     -1292.944891854        11.507688504
       145          145.000000         3.812357470       297.025866741     -1297.015652220     -1293.093385426        11.552847583
       146          146.000000         3.682423312       286.902522738     -1296.867993720     -1293.075892276        11.530368946
       147          147.000000         3.498274881       272.555272384     -1296.500961843     -1292.893261853        11.525488399
       148          148.000000         4.471326616       348.367033795     -1297.824141652     -1293.243712077        11.536218014
       149          149.000000         3.769256867       293.667841120     -1296.903598157     -1293.025484549        11.551557645
       150          150.000000         3.375713054       263.006316594     -1296.458695854     -1292.974345003        12.185409836
       151          151.000000         3.935459049       306.616875316     -1297.238291491     -1293.194486804        11.570208941
       152          152.000000         3.656154480       284.855882984     -1296.710060514     -1292.945865963        11.594337925
       153          153.000000         4.187052999       326.218896214     -1297.472815605     -1293.178056081        11.571505822
       154          154.000000         3.831172501       298.491770961     -1297.067581833     -1293.128996559        11.551781148
       155          155.000000         3.262477216       254.183961035     -1296.275812907     -1292.906189147        11.536339276
       156          156.000000         4.250504644       331.162498741     -1297.605629549     -1293.248338025        11.569684848
       157          157.000000         3.933119659       306.434610294     -1297.057742212     -1293.018176102        11.476786613
       158          158.000000         3.669895302       285.926448795     -1296.767443570     -1292.991399208        11.583026618
       159          159.000000         3.845847513       299.635120736     -1297.083310309     -1293.131631770        11.481160909
       160          160.000000         3.406099695       265.373780386     -1296.372424802     -1292.860814954        11.544044003
       161          161.000000         4.268295111       332.548577807     -1297.495240860     -1293.121831297        11.601777799
       162          162.000000         4.148198720       323.191707425     -1297.343516033     -1293.090571817        11.497694552
       163          163.000000         3.371694347       262.693213726     -1296.327196854     -1292.851043330        11.529323809
       164          164.000000         4.011228328       312.520161099     -1297.258550717     -1293.143202766        11.530418117
       165          165.000000         3.832243279       298.575196708     -1296.880726331     -1292.944711118        11.596377961
       166          166.000000         3.979946116       310.082922130     -1297.075436041     -1292.992059085        11.551312067
       167          167.000000         4.083267314       318.132814836     -1297.311804711     -1293.125432150        12.192286547
       168          168.000000         3.301360433       257.213404481     -1296.248050804     -1292.843858875        12.185387831
       169          169.000000         4.124554737       321.349573146     -1297.345722445     -1293.118679881        12.222661383
       170          170.000000         4.300675635       335.071387675     -1297.513500655     -1293.110683223        12.131969869
       171          171.000000         3.682776850       286.930067372     -1296.668329237     -1292.883666417        11.577545464
       172          172.000000         3.996952607       311.407920586     -1297.222180056     -1293.123597055        12.270755664
       173          173.000000         3.607207672       281.042371731     -1296.611817396     -1292.903220532        12.103313960
       174          174.000000         4.062997511       316.553567336     -1297.155143823     -1292.991027833        11.604295090
       175          175.000000         4.455164104       347.107790851     -1297.714511439     -1293.158483009        11.495808113
       176          176.000000         3.510038289       273.471775149     -1296.438276881     -1292.827523127        11.490283828
       177          177.000000         3.960638332       308.578626860     -1297.091554347     -1293.030371903        11.480212625
       178          178.000000         4.186536042       326.178619429     -1297.302616497     -1293.015705120        11.656940710
       179          179.000000         3.970781348       309.368882813     -1296.937576896     -1292.866530340        11.560691040
       180          180.000000         4.275258732       333.091122792     -1297.487079307     -1293.111626146        11.454757255
       181          181.000000         3.500577078       272.734639556     -1296.447348033     -1292.846585436        12.239409499
       182          182.000000         3.817077522       297.393612263     -1296.844803588     -1292.927589737        11.469151814
       183          183.000000         4.469888987       348.255026128     -1297.686696907     -1293.116723780        11.574059293
       184          184.000000         3.765935900       293.409100158     -1296.694966234     -1292.828904316        11.480746556
       185          185.000000         3.947567250       307.560241406     -1297.062021398     -1293.014282506        11.485792965
       186          186.000000         3.803525891       296.337786567     -1296.859119995     -1292.955365280        11.589266390
       187          187.000000         3.801728162       296.197723116     -1296.735104005     -1292.833096627        11.618770752
       188          188.000000         4.483036039       349.279330564     -1297.679072788     -1293.095693438        11.547431797
       189          189.000000         3.668373571       285.807888695     -1296.577217336     -1292.808345451        11.631716080
       190          190.000000         3.680899221       286.783778764     -1296.634699766     -1292.853176325        11.530990090
       191          191.000000         4.252083596       331.285517027     -1297.375602721     -1293.022778992        11.532132342
       192          192.000000         3.905684189       304.297076127     -1296.816060837     -1292.809457345        11.655613467
       193          193.000000         4.268518049       332.565947171     -1297.387383033     -1293.017734314        11.452190690
       194          194.000000         3.868693289       301.415065684     -1296.882489520     -1292.912387785        11.564028267
       195          195.000000         3.702223287       288.445165267     -1296.581868496     -1292.777968058        11.613768201
       196          196.000000         4.567697820       355.875443123     -1297.710922546     -1293.041256269        11.610148951
       197          197.000000         4.034984839       314.371062658     -1296.952770741     -1292.815395949        11.624846756
       198          198.000000         3.916358181       305.128701123     -1296.848684009     -1292.829495507        12.273073226
       199          199.000000         4.133454034       322.042929230     -1297.186045596     -1292.949291796        12.169159219
       200          200.000000         3.858230150       300.599868491     -1296.667103206     -1292.705060986        12.286711916
       201          201.000000         4.504119326       350.921957613     -1297.609009046     -1293.000512274        13.987496335
       202          202.000000         4.076591343       317.612681006     -1297.058385857     -1292.876722735        12.932937559
       203          203.000000         3.628488015       282.700351675     -1296.483446059     -1292.749215802        12.295010697
       204          204.000000         4.367958750       340.313505107     -1297.495719266     -1293.021335718        12.170010556
       205          205.000000         4.118348268       320.866018854     -1297.066528882     -1292.840944674        12.160575561
       206          206.000000         4.205271332       327.638310938     -1297.230506008     -1292.917133791        12.136064999
       207          207.000000         4.157682480       323.930599855     -1297.246611192     -1292.979884000        12.194028340
       208          208.000000         3.655501177       284.804983264     -1296.517029350     -1292.751549321        11.509614516
       209          209.000000         4.456934714       347.245741433     -1297.611901711     -1293.044021891        12.292788815
       210          210.000000         4.312218153       335.970680679     -1297.387871893     -1292.963552759        12.147658695
       211          211.000000         3.828438894       298.278791956     -1296.770925445     -1292.829222199        11.544789601
       212          212.000000         4.229018734       329.488502780     -1297.394938578     -1293.051482371        11.500564910
       213          213.000000         3.939890402       306.962127956     -1296.914708357     -1292.859128172        11.498760410
       214          214.000000         4.320235212       336.595300538     -1297.426886258     -1292.989654782        11.657797933
       215          215.000000         4.317673923       336.395747028     -1297.493555324     -1293.057423119        11.507601880
       216          216.000000         3.570324646       278.168765876     -1296.495132457     -1292.804936645        11.455456339
       217          217.000000         4.191579998       326.571600834     -1297.383670995     -1293.070849428        11.530477058
       218          218.000000         4.200663554       327.279312823     -1297.330201974     -1293.006756322        12.194563050
       219          219.000000         3.958074329       308.378862002     -1296.999922293     -1292.917499993        11.525233448
       220          220.000000         4.161302337       324.212627779     -1297.387672088     -1293.100427584        11.507896606
       221          221.000000         3.604506041       280.831884014     -1296.605521254     -1292.873504719        11.541671172
       222          222.000000         4.070405593       317.130740901     -1297.230349586     -1293.030906894        11.597518113
       223          223.000000         4.327681806       337.175474623     -1297.570620235     -1293.112188261        11.569517758
       224          224.000000         3.617236449       281.823727162     -1296.631299920     -1292.881620965        11.528153967
       225          225.000000         3.938168510       306.827973012     -1297.166865618     -1293.094666402        11.517658990
       226          226.000000         3.894319323       303.411624255     -1297.050437526     -1293.020433861        11.453077450
       227          227.000000         3.950043988       307.753207350     -1297.075686431     -1292.988292407        11.485703819