    2703
 i =        0, time =        0.000, E =     -1567.6916294891
  C        12.0260790000       11.6772650000       10.4902350000
  O        14.3193810000       12.3801340000        9.2764660000
  O        11.2301530000       12.4457120000        9.9020440000
  N        12.5621670000       11.9572320000       11.7820550000
  H        13.1975340000       11.2518420000       12.0680760000
  H        12.0037590000       12.4714660000       12.3920700000
  H        14.0806420000       11.4747100000        9.1867150000
  N        12.3991450000       10.3633850000       10.1379630000
  H        12.1944240000        9.5989720000       10.8262500000
  H        12.3630110000        9.9433530000        9.0966750000
  H        13.9318680000        9.9362910000       10.4037620000
  N        14.8458150000        9.4440120000       10.0947530000
  H        15.6917300000        9.9224880000       10.5990340000
  H        14.8319820000        9.4290690000        9.0446660000
  H        14.7703950000        8.5046630000       10.4195160000
  O        29.3186930000       18.2317070000       -2.1053850000
  H        28.5161230000       18.5206180000       -1.7214550000
  H        29.8459050000       19.0546720000       -2.1729490000
  O        -0.2820470000       20.3579080000        1.4921030000
  H         0.6429230000       20.7164970000        1.5863170000
  H        -0.6809570000       20.6630480000        2.2954420000
  O         0.6371750000        6.3396620000       -9.3024310000
  H        -0.1475060000        5.7936070000       -9.5984450000
  H         0.2486300000        6.7820840000       -8.5441400000
  O        26.3449040000       22.3235760000       -1.3282860000
  H        26.1408670000       22.9287640000       -0.5852940000
  H        25.5707610000       22.4981290000       -1.8855390000
  O        17.2080730000        4.5625070000        4.0108560000
  H        16.8027690000        3.9919830000        3.3359390000
  H        17.0691110000        3.9877690000        4.8257810000
  O        17.2420480000       -3.1572240000        8.3372370000
  H        16.9146270000       -3.9469690000        8.8060970000
  H        18.1189670000       -3.0502020000        8.7146870000
  O        -3.7607720000       21.9386020000       -4.5092300000
  H        -4.6923650000       21.7109760000       -4.3443840000
  H        -3.8353110000       22.9287190000       -4.4966020000
  O        -4.2414570000        5.8246620000       -2.5624820000
  H        -5.0744430000        6.1031690000       -2.1579860000
  H        -4.0524210000        6.6005400000       -3.1699250000
  O        20.4163720000        2.3931680000       -6.7016800000
  H        20.9484960000        3.0734570000       -7.1759050000
  H        19.6887740000        3.0014780000       -6.3724090000
  O        20.4808500000       23.9224410000       -8.0807750000
  H        19.5705450000       23.5933510000       -8.1330190000
  H        20.2749920000       24.8639340000       -7.8526380000
  O         0.4725680000       10.0985910000        3.0102400000
  H        -0.3170240000       10.7064660000        3.1548620000
  H         0.3627710000        9.5773030000        3.8591270000
  O         8.9136500000       13.9390880000      -11.8920250000
  H         8.4107780000       13.9683020000      -11.0343930000
  H         8.4674490000       14.6239980000      -12.4030260000
  O        20.4633520000        8.4803830000       -3.5487770000
  H        19.5662170000        8.8785540000       -3.6939090000
  H        21.0046310000        9.2796750000       -3.8307770000
  O        -1.3214150000        1.9909790000       -6.1089120000
  H        -1.1845690000        2.9135500000       -6.4795020000
  H        -0.6732850000        2.1171270000       -5.3663480000
  O        18.4298380000        4.0741510000       -5.8252830000
  H        17.5548920000        4.1107540000       -6.3000380000
  H        18.4454920000        4.9151970000       -5.4198720000
  O         8.8026310000       -1.9055910000      -11.6223800000
  H         9.7470450000       -1.8923330000      -11.8800740000
  H         8.5878290000       -0.9564600000      -11.6109060000
  O        -2.9628720000       18.9372810000        1.6532470000
  H        -3.7506680000       19.5530820000        1.6927800000
  H        -2.2740820000       19.5093100000        1.3088060000
  O        29.5972350000       -1.6572560000       -0.6184610000
  H        29.0013070000       -1.7710890000        0.1887300000
  H        29.2104110000       -2.3927000000       -1.1523820000
  O        20.8251480000       31.8689560000       -4.1740340000
  H        20.5163900000       31.5073760000       -5.0667400000
  H        21.7411960000       32.1214330000       -4.4321910000
  O        13.2732240000       13.9265320000      -10.2971700000
  H        12.8477050000       14.1585060000      -11.1550220000
  H        13.8166480000       14.7101540000      -10.1254130000
  O        10.7998200000       16.7715210000      -15.5723670000
  H         9.9050050000       16.4840220000      -15.6293620000
  H        10.7606620000       17.3953990000      -14.8360900000
  O        19.2939620000       27.1575530000      -11.6245950000
  H        18.3595790000       27.3350160000      -11.3375050000
  H        19.1493470000       26.4475960000      -12.2692150000
  O        19.2214780000        9.2887870000       -6.9256040000
  H        20.2048190000        9.3529870000       -6.7157040000
  H        18.9592150000       10.2322860000       -6.8498590000
  O        26.5653270000       -0.6096410000       -0.1398110000
  H        26.5486810000       -1.0215860000       -1.0113740000
  H        27.0539260000        0.1988200000       -0.3081070000
  O        -1.5682160000        5.0019880000      -10.0519750000
  H        -1.6614190000        4.7931960000      -11.0337920000
  H        -2.1284700000        5.7991740000       -9.9941860000
  O        20.7260460000       11.5884480000       -0.7433240000
  H        19.7615180000       11.6955830000       -0.7986470000
  H        21.0325430000       12.5034600000       -1.0255640000
  O        17.1231000000        6.9199530000        2.8051630000
  H        17.4829670000        6.1804700000        3.4081880000
  H        17.7670020000        6.8104840000        2.0466360000
  O         1.3751830000       28.8648360000       -3.2148630000
  H         1.7409970000       28.0453950000       -2.8596230000
  H         0.6667840000       29.0838780000       -2.6111300000
  O        23.0250210000        1.1778510000      -12.3189070000
  H        23.0214520000        0.5916100000      -13.1617530000
  H        22.0378230000        1.1950290000      -12.2085050000
  O        14.5641400000        2.4549920000       -5.6821230000
  H        13.7331300000        2.9426630000       -5.9139170000
  H        15.0153800000        2.5170650000       -6.5438690000
  O        20.8124640000       -4.9212080000       -1.4233760000
  H        20.5151270000       -4.7021660000       -0.5014210000
  H        21.1644840000       -4.0290360000       -1.6668150000
  O        -3.1208120000        7.3587770000      -10.3843850000
  H        -3.7307820000        7.5312400000      -11.1460720000
  H        -2.4469880000        8.0492580000      -10.5199420000
  O        29.5884900000       -2.9534130000       12.8912330000
  H        30.1880970000       -2.2016520000       12.8998330000
  H        29.4297500000       28.9429400000       11.9228030000
  O         2.7505320000       -5.0022340000        4.6473350000
  H         3.4127990000       -4.7121710000        5.2877750000
  H         3.2021090000       -4.9083130000        3.8148810000
  O         7.6601570000        0.5865600000        1.9597170000
  H         8.0828080000        1.4122870000        2.2693420000
  H         7.1183300000        0.9361190000        1.2026110000
  O         3.4495980000       -3.1167410000      -14.4073660000
  H         3.2080750000       -3.6473580000      -15.1827390000
  H         3.8399850000       -3.8361300000      -13.8102190000
  O        25.7941570000       15.6525110000        7.5721700000
  H        26.4106600000       16.3442900000        7.1778250000
  H        25.4837740000       16.1518100000        8.3590760000
  O        28.5035480000        9.0730620000        1.4163450000
  H        29.0767460000        9.8917470000        1.3105300000
  H        27.7106880000        9.4410830000        0.9583200000
  O        21.3115860000        4.1223980000       -1.8875900000
  H        21.9765780000        4.6490360000       -2.3725800000
  H        20.5487440000        4.6620980000       -2.0300210000
  O         1.6576720000        1.3475240000      -14.4884900000
  H         2.5065640000        1.6048750000      -14.0555780000
  H         1.6217120000        0.3748900000      -14.3039660000
  O         9.5003380000        2.9292630000        2.9209360000
  H         8.8650810000        3.6931080000        2.8286150000
  H         9.6831240000        2.7601480000        1.9521150000
  O        10.3936480000       -0.7024840000       -0.1828040000
  H        10.1559950000       -0.7893540000       -1.1413340000
  H        10.2788430000        0.2981890000       -0.0628540000
  O         2.1683510000        0.9113470000      -11.1880910000
  H         1.9393620000        0.2894910000      -11.9003310000
  H         1.4907390000        0.6784700000      -10.5235630000
  O        30.5856360000        4.8763930000        2.9832330000
  H        30.6484620000        5.8848790000        2.8948810000
  H        30.3072720000        4.6992030000        2.0559290000
  O        14.4612670000        6.4131340000        2.4762530000
  H        14.1482110000        7.3040450000        2.1210320000
  H        15.4612820000        6.4381820000        2.4424390000
  O         6.7033470000        6.6180090000       -8.1287930000
  H         6.4894880000        6.1834750000       -8.9498350000
  H         7.0773370000        7.4320830000       -8.4153660000
  O         9.6314690000       14.8828920000       -8.5894220000
  H         8.7022460000       15.1310320000       -8.6702820000
  H         9.5831420000       13.9548700000       -8.9861010000
  O        31.7026140000       -1.0154670000       11.0360080000
  H        32.2937240000       -0.2482480000       11.3230450000
  H        30.8430460000       -0.5640960000       10.9708490000
  O        17.9539640000        5.7117080000        6.9006670000
  H        18.1858790000        4.8094670000        6.5384090000
  H        17.2169360000        6.1127920000        6.4306150000
  O         7.0241270000       -4.2857660000      -11.8102700000
  H         6.3689350000       -3.5955040000      -11.4900660000
  H         7.8320810000       -3.7257050000      -11.7399230000
  O        17.0155720000       14.7004300000       -1.6873620000
  H        16.5247820000       14.3198900000       -0.9312290000
  H        16.2695750000       15.2374310000       -2.0910010000
  O        14.6756530000       18.6887250000        5.6387820000
  H        15.4141980000       18.1554370000        5.3547200000
  H        13.8736300000       18.5115150000        5.1261620000
  O         7.3494000000       18.4588720000        3.4958060000
  H         6.8269440000       19.0495360000        2.8832200000
  H         6.9537810000       18.7846320000        4.3325600000
  O         9.7587100000       20.0562860000       -1.4962500000
  H         9.5141040000       20.6027830000       -0.7447780000
  H        10.6446240000       19.7086160000       -1.2074330000
  O         5.5172990000       -1.2457640000      -13.5540520000
  H         4.7310760000       -1.6822930000      -13.9707650000
  H         5.5164680000       -1.7429580000      -12.7045880000
  O        10.9689320000       12.5526790000        2.9778700000
  H        11.4597700000       11.8215740000        3.4139760000
  H        10.1198420000       12.4687650000        3.4401000000
  O        -0.7092510000       -4.1093220000        3.2009690000
  H        -0.1984060000       -3.8514660000        2.4099920000
  H        -0.5861710000       -3.2919790000        3.7544760000
  O        20.1435450000       -1.5591830000      -11.8118470000
  H        20.2323470000       -0.5685870000      -11.8367640000
  H        19.8938200000       -1.7926370000      -12.7316870000
  O        26.2895580000       22.6904640000      -12.3506420000
  H        26.8727170000       23.1100830000      -12.9918580000
  H        25.9494170000       23.5259460000      -11.8730800000
  O         5.9068810000       -7.3109880000        4.0942590000
  H         6.4494790000       25.5443990000        4.0660550000
  H         6.0036430000       -7.4687340000        5.1062020000
  O         7.5860510000       16.7468260000       -5.2427810000
  H         7.5267510000       16.5883830000       -4.2656350000
  H         7.2405580000       17.6446930000       -5.2875080000
  O        23.1596930000       17.9621580000        5.0890310000
  H        23.4640850000       18.6952060000        5.7083850000
  H        23.4327870000       18.3286380000        4.2130330000
  O         6.7268960000        5.7347300000        0.4623610000
  H         6.8104620000        5.4171420000       -0.4663260000
  H         5.8106930000        6.0803080000        0.4785540000
  O        24.9539550000       -2.8291390000        9.2159090000
  H        25.5604000000       -3.2502070000        8.5650550000
  H        25.3217110000       -3.1151920000       10.0790080000
  O         7.7634920000       -2.8300910000       -4.4460150000
  H         8.0651040000       -1.9421650000       -4.1423410000
  H         7.7978120000       -3.3780230000       -3.6574800000
  O        17.3284240000       20.1256260000        2.6100030000
  H        16.7994270000       19.7455370000        3.3494580000
  H        16.6140440000       20.5376340000        2.0817100000
  O        22.0178320000       23.1360590000        0.2537940000
  H        22.2970430000       22.4515020000        0.8985880000
  H        21.8265190000       23.8716050000        0.8914450000
  O        19.6409530000       12.9721600000       -4.2104950000
  H        19.4073960000       13.9226280000       -4.1859020000
  H        19.4307440000       12.7825040000       -5.1458130000
  O        10.8122030000       -1.2348970000       10.2061300000
  H        11.2106670000       -0.8697350000        9.3575380000
  H        11.6234270000       -1.5726350000       10.6427900000
  O       -15.6289850000        7.8835920000       49.0975110000
  H       -16.1949580000        7.2029160000       48.7227210000
  H       -16.1614780000        8.4337160000       49.6530080000
  O        -3.0640950000        2.1567270000        3.1581290000
  H        -2.8267920000        2.0364860000        2.2297580000
  H        -2.7779880000        3.0785290000        3.2884980000
  O         7.4131560000       10.5491730000      -13.8104850000
  H         6.9226080000       10.1808760000      -13.0621770000
  H         6.8030210000       11.2492170000      -14.0741540000
  O         5.6928500000       -4.9983070000       -8.3370760000
  H         5.4544650000       -4.4667490000       -7.5432230000
  H         6.5154710000       -4.5454420000       -8.6082990000
  O        28.0413680000       15.5051710000      -13.1221880000
  H        27.1101510000       15.7468170000      -13.3686480000
  H        28.1071150000       16.0362130000      -12.3213790000
  O         3.6696340000       17.4214610000       10.1971110000
  H         4.1395740000       16.7880990000       10.7970440000
  H         2.8921110000       16.9614010000       10.0205660000
  O        12.1968070000        8.2727040000       -1.8143080000
  H        11.8009260000        8.9666280000       -2.3670060000
  H        11.4219980000        7.6148200000       -1.8272560000
  O        11.4628320000       14.4163650000      -12.6247340000
  H        10.5420140000       14.0788270000      -12.4522930000
  H        11.3685800000       15.2915210000      -12.2016140000
  O        17.6514640000       -3.7731110000       -7.4358290000
  H        17.9654120000       -3.0957660000       -8.0705600000
  H        16.7038990000       -3.4967350000       -7.3919160000
  O        20.2852540000        1.2803960000      -11.7305460000
  H        20.0259880000        1.8187150000      -12.5144820000
  H        20.1921330000        1.9501540000      -11.0356430000
  O         7.3274920000       19.3575880000       -0.8429760000
  H         8.2551710000       19.2416190000       -1.0305360000
  H         7.1342810000       20.0443970000       -1.5029850000
  O        22.6299920000       -2.3955110000       -7.5486660000
  H        21.9933150000       -2.0903670000       -8.2691450000
  H        23.3935830000       -2.4826350000       -8.1548340000
  O        14.3318170000       16.7807670000      -10.7397490000
  H        13.9058390000       17.4661100000      -10.1837330000
  H        13.9887670000       17.0746630000      -11.6248780000
  O        15.9292420000       12.5522690000        7.2854380000
  H        15.7130710000       11.6619530000        7.4723810000
  H        15.3986410000       12.9534520000        8.0221580000
  O         9.6729020000        6.8637470000       11.2018410000
  H        10.0838520000        6.3611480000       11.8644920000
  H         9.4759650000        6.1252940000       10.5205110000
  O         9.9129060000        1.3587090000        5.0384740000
  H         9.7687030000        1.9609690000        4.2621260000
  H         8.9472960000        1.2420400000        5.2719480000
  O        18.4016270000       15.1441260000        6.0763940000
  H        18.4614160000       14.1863060000        5.7769130000
  H        19.0446890000       15.7057080000        5.6507020000
  O        16.3844030000       26.5298080000        3.8388560000
  H        15.7424950000       26.7465880000        4.5518300000
  H        17.1101320000       27.1549490000        4.0199100000
  O         9.1610700000        8.2786740000       -1.6790940000
  H         9.4996010000        9.1413590000       -1.3947560000
  H         8.1944460000        8.4083810000       -1.3992910000
  O        -2.9922480000       -2.6784840000        1.9964670000
  H        -2.9383100000       -3.6590690000        2.1382340000
  H        -2.0286510000       -2.4834960000        2.1680300000
  O         2.7102990000        0.6888700000        5.8287620000
  H         2.4829750000        1.6509880000        6.0275990000
  H         1.8248060000        0.4212710000        5.4942490000
  O         3.6190430000       -3.8437460000        1.9366680000
  H         4.0425530000       -3.4607490000        1.1952630000
  H         4.1234160000       -3.4659580000        2.6740970000
  O        16.3185120000       19.4025190000        8.4495490000
  H        15.7421840000       18.5561160000        8.3435140000
  H        17.1840000000       19.2393570000        8.9137950000
  O        20.0546170000       24.4261230000      -13.2904300000
  H        20.3065490000       23.4468920000      -13.4741140000
  H        19.2247700000       24.2119370000      -12.8082180000
  O        11.3028300000       -1.0686920000      -12.4968570000
  H        11.3926110000       -0.1258900000      -12.7358230000
  H        11.8520570000       -1.4401330000      -13.2378440000
  O        15.8822920000       23.0773410000        0.2139240000
  H        16.8530790000       -9.0555160000        0.1807330000
  H        15.8327030000       23.9470830000        0.6900290000
  O        16.2628560000       18.4711150000       -2.5968740000
  H        15.8397920000       19.3658890000       -2.4948990000
  H        16.9520660000       18.5444790000       -1.9075860000
  O         7.1924420000        1.3669880000        8.5276860000
  H         6.2259750000        1.4936140000        8.5130560000
  H         7.3725450000        1.4972140000        7.5421120000
  O        21.6885640000       -6.8690100000        1.9344930000
  H        21.4805790000       -6.6651850000        2.8187960000
  H        22.0646420000       25.9829850000        1.6213160000
  O         1.4816170000       12.7607870000        3.1443640000
  H         0.6773180000       13.1792720000        2.8021470000
  H         1.1629030000       11.8822780000        3.3162460000
  O        -0.3381240000        4.2308640000        0.1323860000
  H        -1.0069980000        3.5206960000       -0.0495950000
  H        -0.8840480000        4.9843480000       -0.2210180000
  O        20.1642680000       15.4838820000        8.5706330000
  H        20.7486100000       14.6957470000        8.7896910000
  H        19.5993000000       15.1612920000        7.7616870000
  O        14.1000840000        2.0253830000      -13.0127190000
  H        14.1474350000        3.0088950000      -13.2004350000
  H        13.1361400000        1.9205550000      -12.8726230000
  O        -0.3498810000       15.9692000000      -10.8599610000
  H        -0.1901360000       16.3052180000       -9.9301290000
  H        -0.2378550000       14.9930840000      -10.6887680000
  O        20.0525320000        3.9971500000        1.5844930000
  H        20.6278040000        3.6192810000        0.8667620000
  H        19.8799740000        4.8853740000        1.2092380000
  O         7.5546940000       -1.4117000000        4.0100110000
  H         6.8491220000       -0.9028480000        4.4662270000
  H         7.5185570000       -0.9482970000        3.1342950000
  O        21.5819950000        5.3652860000        8.4245860000
  H        21.0376110000        4.7387340000        7.8610970000
  H        22.3973120000        5.3897080000        7.8048720000
  O         5.6884690000       19.5083940000        1.3239010000
  H         4.9705470000       19.9970020000        0.9022970000
  H         6.2497830000       19.3597810000        0.5035470000
  O         5.2113550000       20.5209180000        9.2399190000
  H         5.8754890000       19.8941170000        8.8932970000
  H         5.7725720000       21.3012960000        9.3142400000
  O        17.8427930000       -1.6070810000       -9.4064180000
  H        17.1016160000       -0.9469960000       -9.3203850000
  H        17.9421860000       -1.5340400000      -10.3887630000
  O         8.9657370000       25.3412910000       -6.6674080000
  H         9.4570500000       -5.8740880000       -6.3997810000
  H         8.2755130000       -6.6907050000       -5.9520110000
  O        -1.5900500000       20.8825780000      -13.2697730000
  H        -2.3560170000       20.2752040000      -13.1663330000
  H        -1.6967310000       21.5077100000      -12.5312270000
  O        -0.6046510000       -2.0798260000        4.8491200000
  H        -1.1177290000       -1.2634830000        4.5277570000
  H        -1.0765550000       -2.1494880000        5.7495190000
  O         8.0054420000        4.5249500000      -13.6476280000
  H         7.4673710000        5.2786300000      -13.9775520000
  H         7.4616180000        4.2582060000      -12.8678490000
  O        20.2096020000       -3.1735240000       -5.3773350000
  H        21.1110310000       -3.0995490000       -5.0594170000
  H        20.2067170000       -2.6284240000       -6.1559590000
  O        12.5356770000        4.4576330000       -3.6906560000
  H        12.4388480000        4.0416600000       -4.5522050000
  H        12.0460470000        5.2786210000       -3.8523670000
  O        16.3822420000        2.9686140000       10.4930250000
  H        17.3015140000        3.0570100000       10.0669700000
  H        16.0277370000        2.4759040000        9.7172820000
  O        21.2676330000       -5.7370190000       -3.8666340000
  H        21.0624830000       26.2572710000       -2.8950980000
  H        20.4685170000       -5.3160960000       -4.2229480000
  O        -2.8276000000        3.1293480000        0.0867840000
  H        -3.8183320000        3.0310040000        0.1484800000
  H        -2.6596170000        2.7549180000       -0.7664720000
  O        24.5101170000       20.4444890000       -9.7061510000
  H        23.8690680000       21.1878320000       -9.5247070000
  H        23.9675560000       19.6762070000       -9.3835240000
  O        -8.7169340000       -5.8271240000       -0.9355120000
  H        -8.1990720000       -5.0093560000       -0.6350200000
  H        -9.6184020000       -5.4226890000       -0.9491700000
  O         7.3054070000        4.3108480000        2.7785310000
  H         6.3733070000        4.1130440000        3.0671460000
  H         7.1171990000        4.8711920000        1.9953120000
  O        30.0991000000        1.9058580000        9.7801690000
  H        30.7068060000        1.5900930000       10.4801730000
  H        29.2435260000        1.5457660000       10.1654010000
  O        14.7047950000       12.9537140000        4.4383040000
  H        15.3474380000       12.7836420000        3.7176790000
  H        15.2816340000       12.8547970000        5.2589650000
  O        -1.3622190000        7.3059820000        2.0245890000
  H        -0.7174100000        8.0309120000        1.9169270000
  H        -2.1990660000        7.8476090000        1.7597640000
  O        12.6735120000       17.4867820000        3.9489480000
  H        11.7599170000       17.6099300000        3.8743860000
  H        12.9177230000       16.5535660000        3.8063690000
  O         8.1620080000       25.1850620000      -11.8147560000
  H         7.7432660000       26.0830380000      -11.9828940000
  H         8.4407680000       25.3699550000      -10.8677440000
  O        30.6208930000       23.0360070000      -11.4548190000
  H        30.2844390000       22.8519400000      -10.4961610000
  H        -0.9856820000       23.9326730000      -11.2656170000
  O        -0.1376350000       26.3318770000       -7.1533840000
  H        -0.0262590000       27.1843470000       -6.6226680000
  H        -0.7829390000       26.6934010000       -7.7925930000
  O        -2.2501200000       -2.4815810000        7.1517530000
  H        -2.2389720000       -2.6265590000        8.1294660000
  H        -2.6915390000       -1.5930910000        7.1291030000
  O         8.6591120000       -3.0760050000       -1.4348820000
  H         9.5604520000       -2.8265850000       -1.6231060000
  H         8.1513520000       -2.3121490000       -1.7293490000
  O        13.8152640000       21.8540690000      -12.5351360000
  H        13.1499590000       21.5439910000      -13.1857480000
  H        13.7280440000       22.8365230000      -12.6666960000
  O        10.9909110000       10.3704110000        0.2583220000
  H        11.4405410000       10.8953800000        0.9337020000
  H        10.8476480000        9.5542070000        0.7367280000
  O        -5.6947340000       25.3695240000        6.8786260000
  H        -6.2822810000       26.1333480000        6.6337620000
  H        -5.4791970000       25.6199530000        7.8096310000
  O         6.6710110000       24.1807880000        6.4474470000
  H         6.1633440000       24.0222530000        7.2345700000
  H         7.4718490000       24.5268730000        6.7971730000
  O        21.9202900000       -0.4083120000      -14.2032130000
  H        21.8489130000       -1.0749320000      -14.9142670000
  H        20.9655860000       -0.1344620000      -14.1167800000
  O        -0.9211580000       20.2656940000       -2.8907540000
  H        -0.4085790000       20.9233630000       -3.3642900000
  H        -1.4266890000       20.8853090000       -2.2729810000
  O        23.3145850000        9.4031760000       -9.0351240000
  H        22.4581410000        9.6677100000       -9.4483160000
  H        23.6319600000       10.2239170000       -8.6740980000
  O        12.5721680000       -1.5147520000      -10.1746060000
  H        12.0292470000       -1.2571450000      -10.9636540000
  H        12.7793760000       -0.6053610000       -9.8442710000
  O        23.9402830000       -0.7064780000       -6.0976130000
  H        23.8456950000        0.0880700000       -6.6706630000
  H        23.3192020000       -1.3093070000       -6.6400670000
  O        11.0725270000        1.3284160000       11.1255820000
  H        12.0079180000        1.1207290000       11.1513840000
  H        10.6042830000        0.4873090000       11.1197030000
  O        20.1718540000       21.7752090000      -10.4215640000
  H        19.4411350000       22.2630250000      -10.0205270000
  H        20.9556410000       22.3009150000      -10.1212480000
  O        14.9196480000       16.3759540000      -14.2192880000
  H        14.4527630000       17.0714210000      -13.7128710000
  H        14.3160370000       16.2614860000      -14.9673440000
  O         9.6884380000       22.6737100000       12.6469120000
  H         9.9859890000       22.5999570000       13.5872200000
  H         9.5946160000       21.7554210000       12.3534610000
  O        27.3605940000       14.4709630000        1.3306240000
  H        27.1389290000       13.9569370000        0.5004200000
  H        26.5557400000       15.0852430000        1.3443960000
  O         5.4667870000       -2.2041640000      -11.1673960000
  H         4.5445240000       -2.4139430000      -10.8271160000
  H         5.8442140000       -1.6562030000      -10.4252890000
  O         3.2083420000       16.3743380000       -0.2079640000
  H         4.0434460000       16.5008740000        0.3173200000
  H         2.5839270000       16.9123270000        0.2839790000
  O        10.1872020000        1.9685880000        0.4218410000
  H         9.4820790000        2.2272480000       -0.2272450000
  H        10.9491930000        2.4424890000        0.0178640000
  O         8.5820240000       10.1094920000       -4.4305360000
  H         9.3670810000       10.3377980000       -3.8636580000
  H         7.9697950000       10.7789200000       -3.9875820000
  O        18.7602980000       10.7161380000        9.3165620000