#     Step Nr.          Time[fs]        Kin.[a.u.]          Temp[K]            Pot.[a.u.]        Cons Qty[a.u.]        UsedTime[s]
         0            0.000000         3.844830508       300.000000000     -1262.817383110     -1258.972077579         0.000000000
         1            1.000000         3.496228835       272.799710732     -1262.342372843     -1258.844860938        43.027503256
         2            2.000000         3.888728582       303.425228285     -1262.884212179     -1258.993437538        11.295443674
         3            3.000000         3.919900777       305.857496333     -1262.853707729     -1258.930953904        11.318163728
         4            4.000000         3.873530435       302.239364767     -1262.840199632     -1258.962997430        11.314996960
         5            5.000000         3.655428960       285.221594454     -1262.595742931     -1258.935849643        11.334711321
         6            6.000000         3.422017967       267.009270733     -1262.270694172     -1258.843501622        11.345563203
         7            7.000000         4.009422808       312.842618074     -1263.007417801     -1258.992137401        11.378824488
         8            8.000000         4.081223204       318.444976589     -1263.058275448     -1258.970429230        11.350002324
         9            9.000000         3.711150122       289.569341049     -1262.615329194     -1258.896782211        11.363863840
        10           10.000000         3.720051815       290.263912070     -1262.698940593     -1258.970770351        11.335127081
        11           11.000000         3.639024830       283.941631906     -1262.544496508     -1258.896664464        11.367036510
        12           12.000000         3.932553876       306.844777743     -1262.977963792     -1259.035925346        11.351174136
        13           13.000000         3.896874822       304.060853679     -1262.961725483     -1259.054655875        11.349323357
        14           14.000000         3.443186588       268.660991509     -1262.365317319     -1258.911269408        11.999036232
        15           15.000000         3.814581292       297.639749014     -1262.866162171     -1259.040117633        11.334734529
        16           16.000000         4.046903735       315.767136645     -1263.081965439     -1259.022955241        11.347145515
        17           17.000000         3.945697104       307.870302352     -1262.939957382     -1258.981466458        11.364033618
        18           18.000000         3.817142578       297.839598122     -1262.858953463     -1259.028329386        11.339393535
        19           19.000000         3.423284200       267.108070917     -1262.341396355     -1258.903999772        11.346977868
        20           20.000000         3.781581370       295.064869164     -1262.793562041     -1258.997302659        11.368244736
        21           21.000000         4.080828227       318.414157771     -1263.162792413     -1259.066682200        11.341052573
        22           22.000000         3.715910125       289.940749068     -1262.676578503     -1258.944756324        11.320365445
        23           23.000000         3.787531333       295.529126063     -1262.885284195     -1259.081248428        11.336702217
        24           24.000000         3.840430874       299.656710400     -1262.906008512     -1259.048482325        11.367594632
        25           25.000000         4.005871974       312.565557702     -1263.075230326     -1259.051652667        11.357928902
        26           26.000000         4.079547636       318.314237303     -1263.182494665     -1259.084580337        11.314157882
        27           27.000000         3.481200001       271.627058216     -1262.422541825     -1258.922326640        11.386228833
        28           28.000000         3.600417648       280.929235225     -1262.563851902     -1258.943862009        11.319139710
        29           29.000000         4.020145402       313.679268316     -1263.127262805     -1259.086985937        11.307925321
        30           30.000000         3.981877971       310.693381325     -1263.028705040     -1259.026083114        11.948835461
        31           31.000000         3.992901295       311.553496523     -1263.113943711     -1259.099657585        11.378752480
        32           32.000000         3.648011329       284.642820140     -1262.612993423     -1258.942961844        11.321335145
        33           33.000000         3.732231247       291.214234705     -1262.722334220     -1258.967495840        11.325758602
        34           34.000000         4.095482944       319.557619152     -1263.204253385     -1259.085555607        11.938966040
        35           35.000000         3.691822175       288.061242229     -1262.649390790     -1258.933717338        11.959229040
        36           36.000000         3.621336894       282.561498071     -1262.603202565     -1258.957436836        11.303899153
        37           37.000000         3.820110416       298.071169133     -1262.858534125     -1259.013443334        11.311832391
        38           38.000000         3.962109050       309.150874751     -1263.009180039     -1259.021519178        11.303303569
        39           39.000000         4.198268117       327.577622025     -1263.374076374     -1259.149628563        11.301988489
        40           40.000000         3.685423392       287.561965427     -1262.759962722     -1259.047699423        11.351778273
        41           41.000000         3.469805546       270.737984809     -1262.510429503     -1259.013205913        11.302996536
        42           42.000000         3.878813010       302.651547423     -1263.031225296     -1259.124457063        11.292322665
        43           43.000000         3.822500428       298.257654246     -1262.855383796     -1259.004368559        11.320883570
        44           44.000000         3.839248121       299.564423945     -1262.905620039     -1259.037301981        11.283360648
        45           45.000000         3.719128217       290.191846575     -1262.772934430     -1259.024191989        11.333233828
        46           46.000000         3.715358779       289.897729281     -1262.727675157     -1258.982187268        11.293591887
        47           47.000000         4.180662596       326.203918756     -1263.350312552     -1259.138987102        11.306604040
        48           48.000000         3.827778148       298.669458116     -1262.847838170     -1258.988806674        11.308984109
        49           49.000000         3.414851761       266.450114267     -1262.384166378     -1258.937529749        11.279954622
        50           50.000000         3.555990703       277.462740808     -1262.619649854     -1259.031427894        11.305999408
        51           51.000000         3.652425742       284.987262858     -1262.622683941     -1258.937619328        11.311722067
        52           52.000000         4.007453967       312.688995649     -1263.058931527     -1259.018436290        11.287202564
        53           53.000000         3.810647802       297.332831221     -1262.875771697     -1259.031651873        11.293261034
        54           54.000000         3.457547748       269.781547470     -1262.410523743     -1258.919112069        11.955717347
        55           55.000000         3.848015249       300.248495280     -1262.957943184     -1259.075725970        11.281192590
        56           56.000000         3.811209126       297.376629560     -1262.873766632     -1259.028009664        11.305603682
        57           57.000000         3.599410764       280.850671271     -1262.679551796     -1259.045268086        11.297694359
        58           58.000000         3.479907477       271.526206673     -1262.592789581     -1259.077740716        11.302959749
        59           59.000000         3.367980334       262.792884646     -1262.411175801     -1259.007858447        11.354894894
        60           60.000000         3.928848354       306.555647582     -1263.059589777     -1259.095270974        11.919817266
        61           61.000000         3.977524381       310.353684472     -1263.091556797     -1259.078412000        11.953297174
        62           62.000000         3.512908171       274.101146763     -1262.550106198     -1259.001421396        11.963621058
        63           63.000000         3.566810463       278.306972624     -1262.701666142     -1259.098980513        11.318520054
        64           64.000000         3.547801400       276.823755326     -1262.634475009     -1259.050752146        11.282639891
        65           65.000000         3.711753274       289.616403028     -1262.875212635     -1259.127542613        11.945655180
        66           66.000000         3.699848408       288.687503908     -1262.910255424     -1259.174524808        11.931005184
        67           67.000000         3.319403646       259.002598855     -1262.407455731     -1259.052236839        11.936021279
        68           68.000000         3.716490692       289.986048842     -1262.883660347     -1259.131502037        11.303147943
        69           69.000000         3.955070080       308.601646137     -1263.147112370     -1259.156565072        11.940585618
        70           70.000000         3.678257453       287.002829796     -1262.820678471     -1259.107124900        11.329358896
        71           71.000000         3.522112515       274.819332691     -1262.729115630     -1259.171906830        11.353622672
        72           72.000000         3.222641322       251.452539828     -1262.322298673     -1259.064808326        11.338787281
        73           73.000000         3.524056899       274.971046828     -1262.646963220     -1259.088403934        11.319642612
        74           74.000000         3.802747268       296.716377477     -1263.030799400     -1259.193989219        11.315043557
        75           75.000000         3.387288791       264.299462667     -1262.492388224     -1259.071493070        11.343588852
        76           76.000000         3.454150089       269.516438881     -1262.616558098     -1259.129310026        11.332318520
        77           77.000000         3.562704122       277.986567784     -1262.702462281     -1259.107254922        11.313933410
        78           78.000000         3.572222777       278.729278376     -1262.679972929     -1259.075909463        11.964459053
        79           79.000000         3.582705625       279.547221937     -1262.754720207     -1259.140892732        11.311211746
        80           80.000000         3.076238586       240.029196014     -1262.122591708     -1259.015958869        11.295476181
        81           81.000000         3.229677188       252.001526277     -1262.340166245     -1259.080902841        11.954502352
        82           82.000000         3.712967910       289.711177318     -1262.920182247     -1259.178627068        11.944325136
        83           83.000000         3.607848092       281.509009340     -1262.689042750     -1259.053704281        11.313426404
        84           84.000000         3.605478305       281.324102363     -1262.736732778     -1259.104893065        11.312137244
        85           85.000000         3.427153532       267.409982707     -1262.508900402     -1259.056539589        11.984698565
        86           86.000000         3.492012598       272.470731095     -1262.541052827     -1259.025044946        11.314494033
        87           87.000000         3.815659783       297.723900282     -1262.962206327     -1259.123899341        11.351611525
        88           88.000000         3.421005347       266.930259193     -1262.439898957     -1258.997609457        11.305496495
        89           89.000000         3.362959241       262.401104603     -1262.366866280     -1258.983974898        11.321250292
        90           90.000000         3.695873763       288.377374883     -1262.765108385     -1259.050796571        11.958481930
        91           91.000000         3.800507366       296.541604999     -1262.804009728     -1258.986692151        11.965209799
        92           92.000000         3.958142375       308.841367642     -1263.033110358     -1259.059857284        11.323904282
        93           93.000000         3.559064885       277.702609584     -1262.565416771     -1258.992885541        11.996164254
        94           94.000000         3.391794008       264.650990482     -1262.345721962     -1258.942034113        11.335641828
        95           95.000000         3.835787225       299.294381131     -1262.894822357     -1259.048854179        11.324888486
        96           96.000000         3.728729345       290.940992342     -1262.695527356     -1258.958429954        11.966002122
        97           97.000000         3.644132163       284.340141044     -1262.679338224     -1259.028631621        11.923588084
        98           98.000000         3.636378682       283.735161337     -1262.684048072     -1259.042906732        11.967184275
        99           99.000000         3.639731996       283.996809845     -1262.612936425     -1258.970295425        11.942585059
       100          100.000000         4.036535747       314.958155278     -1263.162642042     -1259.125187309        11.938224448
       101          101.000000         3.739532694       291.783943593     -1262.773867373     -1259.035412836        12.008577478
       102          102.000000         3.357347958       261.963273866     -1262.325988484     -1258.971563424        11.953711987
       103          103.000000         3.599939783       280.891948985     -1262.663704475     -1259.068572052        11.965947091
       104          104.000000         3.672683919       286.567944518     -1262.669762954     -1259.003905817        11.959262791
       105          105.000000         3.873157768       302.210286714     -1262.918890851     -1259.054684364        11.947073057
       106          106.000000         3.745028788       292.212786469     -1262.785723799     -1259.051790983        11.328779120
       107          107.000000         3.467067205       270.524320747     -1262.405129674     -1258.951207051        11.323791763
       108          108.000000         3.870677413       302.016752479     -1262.988750063     -1259.133353150        11.951753370
       109          109.000000         3.844052589       299.939301393     -1262.934801079     -1259.108273222        11.983068937
       110          110.000000         3.583574053       279.614982693     -1262.620781593     -1259.056890913        11.949880429
       111          111.000000         3.598951051       280.814801286     -1262.693064913     -1259.115918319        11.947186291
       112          112.000000         3.557266089       277.562255162     -1262.568053958     -1259.034742307        11.985336106
       113          113.000000         3.977492229       310.351175756     -1263.084348567     -1259.133106940        11.954556642
       114          114.000000         4.005396995       312.528496607     -1263.081823372     -1259.105077194        11.310123978
       115          115.000000         3.572127707       278.721860412     -1262.524307655     -1258.983073273        11.971059464
       116          116.000000         3.754920226       292.984584211     -1262.730607985     -1259.008770146        11.347033704
       117          117.000000         3.821655151       298.191699978     -1262.770360469     -1258.984052878        11.937152396
       118          118.000000         3.826518500       298.571171740     -1262.753221403     -1258.964322579        11.303898107
       119          119.000000         3.809844756       297.270172059     -1262.764037522     -1258.994063179        11.357066317
       120          120.000000         3.510754288       273.933086066     -1262.291351951     -1258.822616487        11.309443641
       121          121.000000         3.885818399       303.198155836     -1262.735794726     -1258.894189626        11.303299376
       122          122.000000         4.118434513       321.348457661     -1263.000679666     -1258.928799772        11.311089845
       123          123.000000         3.779467582       294.899937006     -1262.504022154     -1258.773350160        11.927543054
       124          124.000000         3.741266060       291.919192676     -1262.545456966     -1258.855097145        11.919834035
       125          125.000000         3.644149341       284.341481376     -1262.476194827     -1258.885016755        11.927795758
       126          126.000000         3.866470978       301.688537596     -1262.748925343     -1258.937526125        11.947240371
       127          127.000000         4.060661710       316.840628042     -1263.046327507     -1259.042916748        11.307161408
       128          128.000000         3.628247055       283.100676113     -1262.517129188     -1258.948186788        11.328441910
       129          129.000000         3.741581361       291.943794637     -1262.668125672     -1258.987812691        11.946615991
       130          130.000000         3.984257192       310.879024435     -1262.949712249     -1259.028763725        11.955513262
       131          131.000000         3.923362767       306.127624499     -1262.769786331     -1258.911763166        11.327735848
       132          132.000000         3.927970194       306.487127471     -1262.765179080     -1258.904510308        11.314652508
       133          133.000000         3.583101109       279.578080296     -1262.270141887     -1258.756176145        11.310679958
       134          134.000000         3.728744175       290.942149513     -1262.490123087     -1258.832302409        11.297463320
       135          135.000000         4.125025650       321.862743359     -1263.031834828     -1258.979631281        11.312874143
       136          136.000000         3.852780337       300.620300098     -1262.664322511     -1258.886214214        11.307885996
       137          137.000000         3.781427426       295.052857449     -1262.644377210     -1258.939347990        11.329870710
       138          138.000000         3.768550958       294.048147219     -1262.662894414     -1258.972422992        11.301714267
       139          139.000000         3.830965976       298.918194253     -1262.693789994     -1258.942571833        11.335673232
       140          140.000000         4.075243941       317.978433573     -1263.084630911     -1259.090829355        11.309161148
       141          141.000000         3.676497778       286.865527871     -1262.620254037     -1259.026793480        11.314120842
       142          142.000000         3.581129302       279.424226448     -1262.500988956     -1259.004379437        11.303411474
       143          143.000000         3.940415419       307.458189176     -1262.937165629     -1259.082810132        11.296441415
       144          144.000000         3.933289566       306.902181297     -1262.850911366     -1259.005245726        11.322793306
       145          145.000000         3.975727996       310.213518163     -1262.950408155     -1259.063817876        11.297676334
       146          146.000000         3.733620566       291.322638863     -1262.693508398     -1259.050446648        11.306997024
       147          147.000000         3.665110723       285.977031910     -1262.579227267     -1259.006022383        11.951374256
       148          148.000000         4.106567623       320.422521707     -1263.129524746     -1259.116265097        11.310259789
       149          149.000000         3.918781831       305.770188512     -1262.787531781     -1258.963432743        11.309960675
       150          150.000000         3.714829810       289.856455468     -1262.553238910     -1258.934352325        11.300217193
       151          151.000000         3.799083792       296.430528015     -1262.698598557     -1258.996685047        11.332876379
       152          152.000000         3.824625499       298.423466827     -1262.641676346     -1258.915444690        11.297691848
       153          153.000000         4.138577253       322.920132190     -1263.082483929     -1259.043541876        11.307258451
       154          154.000000         3.915750149       305.533635888     -1262.844641646     -1259.029704127        11.942262243
       155          155.000000         3.601902647       281.045105022     -1262.450079898     -1258.950048817        11.921323250
       156          156.000000         3.922590832       306.067392830     -1262.867096317     -1259.047440966        11.267696797
       157          157.000000         3.950746384       308.264281748     -1262.900868418     -1259.054133719        11.317986862
       158          158.000000         3.930464658       306.681762664     -1262.856670915     -1259.031247313        11.311561590
       159          159.000000         3.807419278       297.080919648     -1262.738842282     -1259.037434370        11.289300175
       160          160.000000         3.597170183       280.675845833     -1262.452420082     -1258.962175076        11.324466857
       161          161.000000         3.996917705       311.866884335     -1262.939398498     -1259.050352417        11.288225885
       162          162.000000         4.002578972       312.308615163     -1262.912659654     -1259.018902891        11.295331080
       163          163.000000         3.693363666       288.181519907     -1262.511814486     -1258.928141289        11.306629596
       164          164.000000         3.767272604       293.948401308     -1262.687586965     -1259.030845030        11.318550990
       165          165.000000         3.751329498       292.704411014     -1262.616195902     -1258.976239766        11.961958447
       166          166.000000         3.996285728       311.817573175     -1262.900340463     -1259.016286751        11.912186113
       167          167.000000         4.002467347       312.299905406     -1262.935008319     -1259.045612810        11.271732367
       168          168.000000         3.627924073       283.075474845     -1262.422372258     -1258.908280278        11.294776947
       169          169.000000         3.878243466       302.607107688     -1262.760783750     -1258.997128806        11.274167908
       170          170.000000         4.023414684       313.934360076     -1262.905677680     -1258.997624364        11.273288022
       171          171.000000         3.938828297       307.334351059     -1262.773445867     -1258.950708891        11.312584926
       172          172.000000         3.930000036       306.645509632     -1262.816237119     -1259.003011889        11.275273417
       173          173.000000         3.695293281       288.332081748     -1262.481707068     -1258.903824551        11.281942034
       174          174.000000         3.975553411       310.199895882     -1262.819173263     -1258.961672379        11.315764950
       175          175.000000         4.184742789       326.522283397     -1263.093566280     -1259.027517403        11.263967884
       176          176.000000         3.850774610       300.463799528     -1262.639270177     -1258.907751745        11.283071498
       177          177.000000         3.893078173       303.764613163     -1262.793507641     -1259.020204654        11.902502639
       178          178.000000         3.913460037       305.354945681     -1262.789716897     -1258.996534852        11.912336312
       179          179.000000         4.008159720       312.744063350     -1262.895517637     -1259.008119326        12.610934613
       180          180.000000         4.131590047       322.374942551     -1263.108690054     -1259.098312676        12.576965464
       181          181.000000         3.748714422       292.500364915     -1262.616606199     -1258.989487631        12.566524929
       182          182.000000         3.854636301       300.765115109     -1262.753327635     -1259.020656065        12.531862296
       183          183.000000         4.126260625       321.959104518     -1263.079400391     -1259.075477393        11.947559695
       184          184.000000         4.008021412       312.733271601     -1262.863879280     -1258.978519932        11.909708312
       185          185.000000         4.029893685       314.439896056     -1262.945608986     -1259.038654252        11.420330320
       186          186.000000         3.837827978       299.453614616     -1262.698442382     -1258.983787430        11.928393088
       187          187.000000         3.928369206       306.518261139     -1262.785241416     -1258.980266259        11.927235564
       188          188.000000         4.227682395       329.872725446     -1263.135668787     -1259.031584850        11.299270341
       189          189.000000         3.920212819       305.881843961     -1262.710617692     -1258.914140438        11.959634811
       190          190.000000         3.868868946       301.875643466     -1262.701213126     -1258.956186618        11.296755668
       191          191.000000         3.995099499       311.725015444     -1262.837457486     -1258.966297037        11.296580592
       192          192.000000         4.005981675       312.574117353     -1262.807439046     -1258.925465117        11.277658743
       193          193.000000         4.168394718       325.246694959     -1263.047297851     -1259.002941685        11.323966186
       194          194.000000         3.864587822       301.541600856     -1262.667813360     -1258.927239500        11.295614154
       195          195.000000         3.794917117       296.105415464     -1262.574036101     -1258.903099888        11.305286758
       196          196.000000         4.160724602       324.648219993     -1263.054811436     -1259.018032643        11.275991631
       197          197.000000         4.072858543       317.792308441     -1262.900537556     -1258.951534359        11.264624424
       198          198.000000         4.029809142       314.433299425     -1262.886295499     -1258.980204976        11.290265989
       199          199.000000         3.921266096       305.964027846     -1262.784385784     -1258.986669733        11.278012830
       200          200.000000         3.870290682       301.986577059     -1262.662292083     -1258.915371600        11.298829531
       201          201.000000         4.229095996       329.983024244     -1263.131425768     -1259.025498933        11.332887078
       202          202.000000         4.052548778       316.207601588     -1262.894169873     -1258.964520167        11.264897192
       203          203.000000         3.850162267       300.416020292     -1262.646963582     -1258.919403968        11.267380747
       204          204.000000         4.021776891       313.806568217     -1262.889394328     -1258.989917639        11.266582930
       205          205.000000         4.028069145       314.297532970     -1262.839016280     -1258.932909261        11.270236919
       206          206.000000         4.207013082       328.259964091     -1263.082025956     -1258.996589236        11.280302240
       207          207.000000         4.040151581       315.240287363     -1262.899463229     -1258.980438585        11.275122885
       208          208.000000         3.772593175       294.363548695     -1262.547107572     -1258.895183199        11.255286555
       209          209.000000         4.081690595       318.481445626     -1262.964511106     -1259.003033546        11.276844501
       210          210.000000         4.072026679       317.727400768     -1262.921831824     -1258.969508548        11.298534354
       211          211.000000         3.966839673       309.519990373     -1262.825083857     -1258.977405603        11.898620240
       212          212.000000         3.953193490       308.455221780     -1262.900617284     -1259.066029142        11.878177545
       213          213.000000         3.814590153       297.640440438     -1262.705093168     -1259.008549673        11.878507284
       214          214.000000         4.111081593       320.774732553     -1263.086251474     -1259.092646762        11.916084423
       215          215.000000         4.103898549       320.214262260     -1263.043888436     -1259.056833298        11.942053591
       216          216.000000         3.802449703       296.693159401     -1262.662672901     -1258.976417135        11.909066388
       217          217.000000         3.932813104       306.865004460     -1262.889212732     -1259.071961320        11.921637749
       218          218.000000         3.930948267       306.719497148     -1262.839173231     -1259.023134906        11.895065092
       219          219.000000         4.009693705       312.863755336     -1262.926895460     -1259.031439302        11.946274032
       220          220.000000         4.007321502       312.678659864     -1262.963006136     -1259.069216845        11.287950493
       221          221.000000         3.709528455       289.442807454     -1262.526397364     -1258.929702571        11.317940815
       222          222.000000         3.947408344       308.003825035     -1262.824134346     -1258.988885666        11.277652238
       223          223.000000         4.075645389       318.009757304     -1263.010385841     -1259.046180657        11.912742872
       224          224.000000         3.893396992       303.789489564     -1262.779489312     -1258.996783913        11.912731556
       225          225.000000         3.922366960       306.049924844     -1262.882507338     -1259.070087868        11.894090148
       226          226.000000         3.792337313       295.904121474     -1262.691139642     -1259.008009122        12.526405967
       227          227.000000         3.969667776       309.740658352     -1262.893867186     -1259.032669061        11.916929917