#     Step Nr.          Time[fs]        Kin.[a.u.]          Temp[K]            Pot.[a.u.]        Cons Qty[a.u.]        UsedTime[s]
         0            0.000000         3.850530776       300.000000000     -1280.331133810     -1276.480128012         0.000000000
         1            1.000000         3.981372783       310.194075661     -1280.525506785     -1276.542785705        53.934743952
         2            2.000000         3.956296252       308.240329593     -1280.472674108     -1276.514121555        15.055600215
         3            3.000000         3.964165819       308.853458134     -1280.462628295     -1276.495277459        15.096659087
         4            4.000000         4.013861766       312.725335759     -1280.535488806     -1276.517481847        15.095549412
         5            5.000000         3.928555125       306.078981331     -1280.399576392     -1276.465890058        14.336777851
         6            6.000000         4.019959825       313.200443691     -1280.514800017     -1276.488701400        14.428890120
         7            7.000000         4.020233106       313.221735385     -1280.502114969     -1276.474690967        14.350410368
         8            8.000000         3.960764088       308.588424690     -1280.393129460     -1276.424096618        14.341131546
         9            9.000000         4.063151792       316.565587600     -1280.526078035     -1276.453546609        14.318037000
        10           10.000000         3.993161616       311.112559380     -1280.425064500     -1276.421368288        14.451824293
        11           11.000000         4.006410362       312.144786935     -1280.421994664     -1276.403871266        14.362612013
        12           12.000000         4.076092256       317.573796419     -1280.478544810     -1276.389514964        14.378538661
        13           13.000000         3.994681237       311.230955120     -1280.308461278     -1276.299577035        14.361277781
        14           14.000000         4.093487215       318.929060938     -1280.429408847     -1276.320415892        14.361138526
        15           15.000000         4.115781715       320.666055231     -1280.373983101     -1276.241324556        15.069393829
        16           16.000000         4.087484598       318.461389032     -1280.292948000     -1276.187162436        15.081070755
        17           17.000000         4.200459806       327.263438495     -1280.402687550     -1276.182434173        15.072013389
        18           18.000000         4.150593648       323.378299463     -1280.302190345     -1276.130229608        14.321083967
        19           19.000000         4.191762224       326.585798283     -1280.320001898     -1276.105235031        14.340498921
        20           20.000000         4.260578533       331.947368925     -1280.370735073     -1276.085419476        14.347610079
        21           21.000000         4.181083091       325.753772717     -1280.209992797     -1276.002359937        14.340490792
        22           22.000000         4.326212348       337.060987119     -1280.388524921     -1276.033859898        15.087029647
        23           23.000000         4.392781764       342.247499352     -1280.421737645     -1275.998452194        15.111040346
        24           24.000000         4.391214876       342.125420969     -1280.373767779     -1275.949866987        14.342688203
        25           25.000000         4.514810960       351.754957106     -1280.506187262     -1275.956355630        15.127107549
        26           26.000000         4.465178036       347.887989691     -1280.344863104     -1275.842169567        14.351619571
        27           27.000000         4.520151016       352.171008067     -1280.364144131     -1275.803844807        14.355659138
        28           28.000000         4.601620923       358.518437375     -1280.432004921     -1275.787416155        14.370659199
        29           29.000000         4.520697929       352.213618761     -1280.285131670     -1275.718489262        14.339193266
        30           30.000000         4.627554718       360.538974025     -1280.397079598     -1275.720448466        15.124987673
        31           31.000000         4.655735975       362.734613433     -1280.385501783     -1275.677349401        15.065475155
        32           32.000000         4.641449152       361.621507919     -1280.294657298     -1275.597281137        15.126455229
        33           33.000000         4.744796624       369.673447655     -1280.426933512     -1275.622501553        15.114625141
        34           34.000000         4.674828213       364.222115198     -1280.322995457     -1275.584636762        15.078626689
        35           35.000000         4.729259399       368.462921668     -1280.382955855     -1275.586117503        14.325839311
        36           36.000000         4.814525128       375.106088579     -1280.443624892     -1275.557247787        15.104715291
        37           37.000000         4.727043344       368.290265888     -1280.314669211     -1275.511332591        15.098442744
        38           38.000000         4.785812032       372.869012947     -1280.404289576     -1275.537607927        15.110970754
        39           39.000000         4.746636093       369.816763130     -1280.350233239     -1275.517997889        14.329264142
        40           40.000000         4.707471576       366.765403290     -1280.286706728     -1275.488820305        14.353208076
        41           41.000000         4.821665032       375.662368105     -1280.425241900     -1275.508199240        14.387277406
        42           42.000000         4.752546392       370.277242436     -1280.334172722     -1275.481149296        14.368609976
        43           43.000000         4.781316737       372.518778439     -1280.373417376     -1275.486454511        14.372001853
        44           44.000000         4.846796633       377.620404696     -1280.438164639     -1275.480418853        14.378314897
        45           45.000000         4.802060085       374.134920467     -1280.329895896     -1275.411492674        14.399799712
        46           46.000000         4.918929003       383.240334107     -1280.497686149     -1275.456917037        14.336657573
        47           47.000000         4.872160208       379.596514704     -1280.435891040     -1275.436287857        14.365280494
        48           48.000000         4.788961007       373.114353755     -1280.331870237     -1275.409895338        14.409665193
        49           49.000000         4.875734890       379.875023021     -1280.470792848     -1275.456457388        14.388574965
        50           50.000000         4.802553824       374.173388326     -1280.361701937     -1275.414941663        15.280543394
        51           51.000000         4.829644939       376.284093327     -1280.425593989     -1275.446174865       171.066017848
        52           52.000000         4.876614647       379.943566030     -1280.483644030     -1275.451663182        14.383389454
        53           53.000000         4.796752862       373.721427589     -1280.373215605     -1275.415544921        14.399533577
        54           54.000000         4.881637961       380.334939105     -1280.537927005     -1275.489857876        14.370484244
        55           55.000000         4.810323388       374.778725419     -1280.492186553     -1275.509947648        14.420680694
        56           56.000000         4.703544237       366.459419046     -1280.374958789     -1275.494170804        14.398312956
        57           57.000000         4.761593600       370.982122512     -1280.475049035     -1275.530988895        14.405668225
        58           58.000000         4.668877056       363.758452634     -1280.374171434     -1275.517697535        14.394284524
        59           59.000000         4.678881075       364.537879075     -1280.446947466     -1275.575471143        14.354007173
        60           60.000000         4.677109129       364.399824405     -1280.475105381     -1275.600482974        14.458978988
        61           61.000000         4.542191673       353.888225053     -1280.319638420     -1275.575170447        14.402107373
        62           62.000000         4.601796406       358.532109501     -1280.443016585     -1275.634319375        14.480298810
        63           63.000000         4.550326919       354.522052938     -1280.410579712     -1275.648809999        14.402076464
        64           64.000000         4.462496635       347.679078151     -1280.333641205     -1275.655316533        14.409135614
        65           65.000000         4.501877892       350.747324499     -1280.415034103     -1275.693060864        14.415576864
        66           66.000000         4.401812521       342.951097702     -1280.317087844     -1275.691023914        15.129399095
        67           67.000000         4.432930659       345.375553433     -1280.409607550     -1275.748389501        14.427253038
        68           68.000000         4.439863725       345.915717853     -1280.487378203     -1275.815249007        14.381190393
        69           69.000000         4.286898282       333.997975740     -1280.314867421     -1275.791857744        14.410805628
        70           70.000000         4.316117217       336.274461999     -1280.424244973     -1275.868306380        14.421878029
        71           71.000000         4.259291053       331.847059581     -1280.396978158     -1275.894239365        14.416527372
        72           72.000000         4.202291712       327.406164753     -1280.365820340     -1275.916574336        14.409680974
        73           73.000000         4.253579055       331.402030174     -1280.488574953     -1275.984609464        14.418696854
        74           74.000000         4.143278687       322.808381124     -1280.396304121     -1275.999289265        15.167302612
        75           75.000000         4.184639722       326.030874594     -1280.487502218     -1276.045869661        15.181714445
        76           76.000000         4.225993285       329.252785954     -1280.581167622     -1276.094945415        15.173935268
        77           77.000000         4.086770353       318.405741253     -1280.444594723     -1276.094437904        14.416362096
        78           78.000000         4.087223520       318.441048083     -1280.487293953     -1276.133633993        14.420770608
        79           79.000000         4.003867992       311.946707491     -1280.411133776     -1276.137863324        14.413236436
        80           80.000000         3.963183156       308.776897498     -1280.366615022     -1276.131168849        14.426964417
        81           81.000000         4.042535595       314.959352105     -1280.509513552     -1276.191901079        14.438382659
        82           82.000000         3.923623717       305.694768741     -1280.404855437     -1276.203400797        14.405348957
        83           83.000000         3.939570890       306.937234316     -1280.468246487     -1276.248182584        14.407448612
        84           84.000000         3.987605489       310.679674138     -1280.520387998     -1276.249656621        14.473057412
        85           85.000000         3.907783663       304.460649006     -1280.435395346     -1276.241903648        14.404006887
        86           86.000000         3.951770754       307.887742006     -1280.564877594     -1276.324874344        14.443260845
        87           87.000000         3.852772770       300.174676722     -1280.464284158     -1276.320811307        14.410682272
        88           88.000000         3.802533638       296.260478859     -1280.407405057     -1276.311800879        14.390245438
        89           89.000000         3.904603093       304.212846533     -1280.586764545     -1276.386758663        15.141637709
        90           90.000000         3.803666713       296.348758226     -1280.453062025     -1276.351698830        15.153267380
        91           91.000000         3.781007482       294.583347202     -1280.465771528     -1276.384859268        15.168439787
        92           92.000000         3.763689765       293.234100744     -1280.472546960     -1276.406807319        15.135486141
        93           93.000000         3.675084150       286.330718872     -1280.337303605     -1276.358107728        14.447354291
        94           94.000000         3.763793667       293.242195878     -1280.445984219     -1276.376078980        14.398405381
        95           95.000000         3.708109965       288.903804264     -1280.378610258     -1276.362429796        14.392375037
        96           96.000000         3.676051115       286.406056383     -1280.334193099     -1276.348189472        14.384665348
        97           97.000000         3.801989683       296.218098542     -1280.494710894     -1276.380918324        14.432061478
        98           98.000000         3.765425503       293.369334424     -1280.418306647     -1276.339242684        14.377776604
        99           99.000000         3.801652942       296.191862604     -1280.472122855     -1276.355032909        14.429125011
       100          100.000000         3.780776685       294.565365534     -1280.474036223     -1276.376051724        14.407802038
       101          101.000000         3.681897281       286.861539027     -1280.336975834     -1276.336161884        14.410648771
       102          102.000000         3.804722389       296.431007349     -1280.494720996     -1276.369412628        14.435437202
       103          103.000000         3.797398570       295.860398847     -1280.453727682     -1276.334076475        14.453355838
       104          104.000000         3.785664193       294.946157795     -1280.426370622     -1276.316817048        14.383064076
       105          105.000000         3.895672033       303.517015674     -1280.549994681     -1276.328799608        14.413643591
       106          106.000000         3.873646990       301.801015153     -1280.479520481     -1276.278705846        14.436863258
       107          107.000000         3.977311388       309.877646937     -1280.555806576     -1276.249670730        14.394246873
       108          108.000000         4.001829180       311.787860933     -1280.587839687     -1276.255490537        15.178196274
       109          109.000000         3.895082261       303.471065750     -1280.424355858     -1276.197059938        14.477961984
       110          110.000000         4.012586017       312.625940433     -1280.541060028     -1276.194560893        14.410985369
       111          111.000000         4.040860296       314.828827343     -1280.518666546     -1276.142142092        14.440086987
       112          112.000000         4.059169992       316.255360252     -1280.494070061     -1276.097446044        14.412399404
       113          113.000000         4.139658438       322.526322687     -1280.549650591     -1276.070691259        14.375780214
       114          114.000000         4.071188073       317.191705004     -1280.414206761     -1276.001821643        14.404644847
       115          115.000000         4.177047110       325.439324064     -1280.531520106     -1276.011329902        14.391408786
       116          116.000000         4.247291102       330.912127419     -1280.562706200     -1275.970225143        14.413727596
       117          117.000000         4.177392689       325.466248621     -1280.443476626     -1275.918775730        14.414540105
       118          118.000000         4.272313270       332.861637961     -1280.542972493     -1275.921161568        14.382955432
       119          119.000000         4.280566904       333.504689606     -1280.531804365     -1275.899444717        14.382521994
       120          120.000000         4.332515243       337.552054121     -1280.559580494     -1275.872876522        14.442629792
       121          121.000000         4.426737588       344.893042949     -1280.632150823     -1275.848690533        14.395222262
       122          122.000000         4.314918537       336.181071255     -1280.446776241     -1275.772496292        15.188286573
       123          123.000000         4.366022575       340.162655186     -1280.485922671     -1275.757823957        14.410921186
       124          124.000000         4.435366676       345.565346732     -1280.487618102     -1275.687321217        14.379843853
       125          125.000000         4.404357097       343.149349028     -1280.410442231     -1275.638175538        14.368479140
       126          126.000000         4.511207657       351.474218952     -1280.531370216     -1275.649135245        14.418900333
       127          127.000000         4.494720615       350.189691486     -1280.460008396     -1275.590982642        14.434301972
       128          128.000000         4.541713636       353.850980545     -1280.472202667     -1275.552765930        14.400260553
       129          129.000000         4.663453288       363.335879589     -1280.628226722     -1275.583427966        14.382843923
       130          130.000000         4.556651702       355.014825287     -1280.464443931     -1275.522661915        14.428365316
       131          131.000000         4.570970286       356.130405313     -1280.479700795     -1275.519715153        14.364960261
       132          132.000000         4.600371816       358.421117826     -1280.485964920     -1275.492539078        14.390044864
       133          133.000000         4.577365617       356.628674051     -1280.429964815     -1275.455367838        14.441754121
       134          134.000000         4.687493263       365.208866195     -1280.557607363     -1275.468532256        14.367887598
       135          135.000000         4.625392742       360.370531576     -1280.434412831     -1275.402919704        14.394008696
       136          136.000000         4.623424486       360.217182105     -1280.438158912     -1275.404014437        14.349387456
       137          137.000000         4.740750552       369.358212802     -1280.607131008     -1275.450853571        14.410955053
       138          138.000000         4.678444009       364.503826743     -1280.507051775     -1275.408103109        14.406172000
       139          139.000000         4.699612592       366.153099289     -1280.502913391     -1275.377710951        14.379041392
       140          140.000000         4.675229479       364.253378371     -1280.471211026     -1275.365185317        14.369298320
       141          141.000000         4.625190320       360.354760592     -1280.355680049     -1275.294418845        14.363394495
       142          142.000000         4.757178722       370.638153423     -1280.610859666     -1275.412190899        15.134949170
       143          143.000000         4.694165121       365.728679600     -1280.491522728     -1275.350297726        15.135873705
       144          144.000000         4.629395303       360.682376478     -1280.427921797     -1275.345879360        15.155974794
       145          145.000000         4.673893916       364.149322878     -1280.494556722     -1275.362367672        15.171969395
       146          146.000000         4.607464995       358.973756822     -1280.418932190     -1275.347468391        14.429185651
       147          147.000000         4.651150434       362.377347794     -1280.535228119     -1275.414336420        14.433474436
       148          148.000000         4.585198880       357.238974093     -1280.486800187     -1275.426081993        14.390191432
       149          149.000000         4.464224990       347.813736616     -1280.346841656     -1275.401407827        14.380857844
       150          150.000000         4.562093028       355.438766251     -1280.546366448     -1275.497386774        14.444158200
       151          151.000000         4.526743907       352.684668969     -1280.508229015     -1275.488870613        14.419091705
       152          152.000000         4.486886594       349.579332478     -1280.466852964     -1275.481669521        14.388179287
       153          153.000000         4.472973365       348.495334181     -1280.475992662     -1275.499083997        14.398018204
       154          154.000000         4.339022769       338.059064186     -1280.327197550     -1275.478713878        14.451562732
       155          155.000000         4.405560187       343.243083349     -1280.394431879     -1275.473970299        15.166021816
       156          156.000000         4.398556721       342.697433978     -1280.417004076     -1275.498104716        15.144719418
       157          157.000000         4.270265376       332.702083797     -1280.365796355     -1275.569869646        14.425561037
       158          158.000000         4.302715961       335.230352253     -1280.402262367     -1275.568684212        15.174725022
       159          159.000000         4.239770731       330.326205232     -1280.379053717     -1275.603295426        15.153139435
       160          160.000000         4.238726986       330.244885692     -1280.416981561     -1275.637244480        15.106645346
       161          161.000000         4.248844307       331.033139626     -1280.483193828     -1275.688375086        14.385423288
       162          162.000000         4.089197100       318.594812378     -1280.329978282     -1275.689991920        14.426046692
       163          163.000000         4.122072963       321.156214746     -1280.397746298     -1275.720225296        15.164320402
       164          164.000000         4.132618013       321.977793763     -1280.442044301     -1275.749372349        14.352283224
       165          165.000000         4.055962467       316.005457648     -1280.348861196     -1275.728347987        14.401299007
       166          166.000000         4.081131466       317.966408028     -1280.474831882     -1275.824760241        14.370302621
       167          167.000000         3.982271901       310.264127175     -1280.407291899     -1275.851804235        14.394710694
       168          168.000000         3.994882127       311.246606756     -1280.447175053     -1275.874930960        14.348166268
       169          169.000000         4.054119367       315.861859285     -1280.626352251     -1275.990765862        15.153781839
       170          170.000000         3.922928751       305.640623013     -1280.481861072     -1275.973463591        15.145781040
       171          171.000000         3.931483087       306.307102735     -1280.544012400     -1276.023200585        14.398368247
       172          172.000000         3.919111627       305.343225814     -1280.578344239     -1276.066123253        14.411173984
       173          173.000000         3.877235150       302.080573476     -1280.542345084     -1276.068321237        14.389774539
       174          174.000000         3.938090393       306.821886801     -1280.657158221     -1276.118667172        14.418993212
       175          175.000000         3.818519229       297.505937592     -1280.543945224     -1276.121506322        14.412312593
       176          176.000000         3.795796307       295.735564399     -1280.560766129     -1276.157673603        14.386940654
       177          177.000000         3.853733340       300.249516021     -1280.653296053     -1276.188953328        14.365449101
       178          178.000000         3.760309553       292.970743890     -1280.579628963     -1276.205480680        14.358008053
       179          179.000000         3.778508993       294.388686656     -1280.664635515     -1276.269166834        14.382949039
       180          180.000000         3.723572296       290.108495121     -1280.563423562     -1276.219858789        14.384397350
       181          181.000000         3.658066299       285.004835298     -1280.491262410     -1276.210296987        14.403368995
       182          182.000000         3.742420809       291.577007966     -1280.621257583     -1276.253106883        14.406647228
       183          183.000000         3.657199008       284.937263557     -1280.517939536     -1276.232250843        14.464052878
       184          184.000000         3.636585427       283.331231860     -1280.486388465     -1276.218670743        14.407242373
       185          185.000000         3.688421599       287.369857314     -1280.575205826     -1276.253076759        14.375560440
       186          186.000000         3.629405771       282.771855308     -1280.479124422     -1276.213508412        14.379165847
       187          187.000000         3.700963278       288.346996340     -1280.597597821     -1276.257990626        14.381687403
       188          188.000000         3.679633780       286.685186615     -1280.569362391     -1276.248696835        14.359488312
       189          189.000000         3.635888599       283.276941102     -1280.503274175     -1276.224049200        14.390174855
       190          190.000000         3.739008706       291.311166430     -1280.605076866     -1276.220473657        14.389953397
       191          191.000000         3.691243278       287.589698086     -1280.528216939     -1276.189154454       152.618292511
       192          192.000000         3.701374613       288.379043987     -1280.571888694     -1276.220534287        14.367944017
       193          193.000000         3.743994127       291.699587258     -1280.640979305     -1276.244879496        15.184853002
       194          194.000000         3.689892632       287.484467483     -1280.530309431     -1276.186231702        15.134741858
       195          195.000000         3.781773064       294.642994738     -1280.638558223     -1276.200557009        14.382387254
       196          196.000000         3.771529904       293.844936456     -1280.586296486     -1276.156506899        14.363290057
       197          197.000000         3.730482043       290.646842779     -1280.493635438     -1276.102908793        14.356042936
       198          198.000000         3.836872458       298.935862230     -1280.604013985     -1276.104930590        14.382718556
       199          199.000000         3.818010872       297.466330855     -1280.534689687     -1276.052499471        14.355895143
       200          200.000000         3.860608542       300.785172248     -1280.586619147     -1276.059875891        14.425889418
       201          201.000000         3.898434818       303.732267938     -1280.624729655     -1276.058195891        14.736205116
       202          202.000000         3.827482781       298.204299912     -1280.514446470     -1276.016914828        15.163369115
       203          203.000000         3.926264621       305.900525121     -1280.586030990     -1275.987773269        15.125158433
       204          204.000000         3.934774142       306.563513288     -1280.574889660     -1275.966150026        15.100156385
       205          205.000000         3.909026725       304.557497604     -1280.512509285     -1275.927544200        15.108936045
       206          206.000000         4.001349025       311.750451423     -1280.593555776     -1275.914274899        15.165888023
       207          207.000000         3.979197679       310.024610418     -1280.533439804     -1275.874281859        14.342161376
       208          208.000000         4.056568267       316.052656357     -1280.567928792     -1275.829339163        15.125200402
       209          209.000000         4.120955755       321.069171628     -1280.602884984     -1275.797777915        14.361142512
       210          210.000000         4.057235166       316.104615324     -1280.483018255     -1275.739458708        14.366912622
       211          211.000000         4.140394330       322.583656960     -1280.579328975     -1275.750394946        14.345314484
       212          212.000000         4.150819380       323.395886542     -1280.553005522     -1275.711356737        14.369335495
       213          213.000000         4.146493247       323.058831773     -1280.542186233     -1275.702519417        14.359217547
       214          214.000000         4.230290644       329.587598991     -1280.663365891     -1275.737480046        14.378682446
       215          215.000000         4.181507093       325.786807331     -1280.574137585     -1275.694536851        14.381518669
       216          216.000000         4.242006818       330.500421785     -1280.611545767     -1275.668880721        14.398275610
       217          217.000000         4.308418265       335.674626382     -1280.686468303     -1275.674715208        15.115630083
       218          218.000000         4.257172398       331.681992360     -1280.576691164     -1275.613418853        15.099604778
       219          219.000000         4.338993921       338.056816563     -1280.658405091     -1275.610457012        14.387783498
       220          220.000000         4.341865028       338.280508416     -1280.641870793     -1275.588078282        14.359572906
       221          221.000000         4.352755113       339.128969469     -1280.622798839     -1275.555045020        14.365049884
       222          222.000000         4.440668112       345.978388750     -1280.755488111     -1275.596617665        14.345683057
       223          223.000000         4.378538863       341.137815904     -1280.658223102     -1275.558159799        14.421314593
       224          224.000000         4.427454757       344.948918591     -1280.704785959     -1275.552388507        14.388165236
       225          225.000000         4.481585811       349.166341337     -1280.736764969     -1275.526669993        14.411047671
       226          226.000000         4.427248033       344.932812444     -1280.631264716     -1275.471826377        15.114141949
       227          227.000000         4.492519783       350.018221730     -1280.733847257     -1275.505344411        15.119243853