    2703
 i =        0, time =        0.000, E =     -1280.3311338103
  C        18.2111660000       12.6260870000       10.9194500000
  O        18.8336320000       11.9124780000        9.8436510000
  O        18.3585170000       13.9056360000       10.7885070000
  N        18.4279060000       11.8906420000       12.2034110000
  H        19.3305890000       14.0912650000       11.0963240000
  H        19.1043190000       11.1609090000       12.1520250000
  H        18.3323100000       12.5119900000       12.9237270000
  N        16.6852680000       12.4664010000       10.7824380000
  H        16.5549700000       11.4875160000       10.2261780000
  H        16.2120690000       13.3184030000       10.3645880000
  H        16.2743850000       12.2555960000       11.7380830000
  O        19.8342020000        8.9493280000       11.2291730000
  H        19.4921380000        8.0161220000       11.0936690000
  H        18.8212200000       10.9797390000       10.0989720000
  H        20.6745000000        8.5243680000       11.5731540000
  O        30.3106750000       16.4362950000        2.4441210000
  H        29.8222770000       16.1235730000        1.7101670000
  H        30.4921840000       15.6900530000        3.0183490000
  O         2.3721250000       19.9957330000        2.9608240000
  H         1.9862270000       19.6495400000        2.1903040000
  H         1.9748450000       20.9128210000        3.0160400000
  O         4.0842250000        8.0268790000       -8.7864070000
  H         3.3771460000        7.7346370000       -8.1331840000
  H         3.4758160000        8.5785600000       -9.3728460000
  O        29.2322200000       25.3458120000       -2.9122860000
  H        28.9921570000       26.3089790000       -2.8627530000
  H        28.2759700000       25.0192680000       -3.0542930000
  O        26.0357550000       10.3068200000       11.7777990000
  H        25.3662470000       10.8358770000       11.2947170000
  H        25.8068920000       10.3802800000       12.7151290000
  O        20.0451300000       -0.9033540000       10.8091320000
  H        19.1078870000       -0.5672710000       10.6735360000
  H        19.7543750000       30.2353670000       11.2403650000
  O         0.2089980000       25.4352860000       -3.5702400000
  H        -0.6768250000       25.5722060000       -3.2687220000
  H         0.6085250000       26.2894250000       -3.2506650000
  O        -0.2779340000       12.5530820000        1.1465710000
  H        -0.2671520000       12.2716360000        0.1695140000
  H         0.6753080000       12.8258060000        1.2390680000
  O        28.6442010000        5.7280480000       -1.0585740000
  H        27.7560500000        5.5101130000       -1.5024440000
  H        29.1462480000        4.8960070000       -1.3575690000
  O        20.2302630000       24.9988250000       -3.7434620000
  H        20.4963590000       25.2085820000       -2.8346540000
  H        19.9677330000       25.8730870000       -4.1269580000
  O         2.9328040000       12.3390870000        5.3755760000
  H         2.0610070000       12.2603150000        5.0240860000
  H         3.5386670000       11.9365820000        4.7223190000
  O         9.8748590000       19.1856800000      -11.6772990000
  H         9.1122030000       19.3853170000      -11.0574550000
  H         9.2788450000       18.9579700000      -12.4212100000
  O        24.4667240000        6.8812140000       -2.7853090000
  H        24.8177850000        7.6509280000       -2.3473790000
  H        24.0075970000        6.4145300000       -2.0446410000
  O         2.4702640000        4.0449320000       -9.0652050000
  H         3.2612550000        4.4168540000       -9.5313370000
  H         2.7837580000        4.1203340000       -8.1382430000
  O        23.4818400000        5.3111630000       -0.9475750000
  H        23.9700950000        5.1544980000       -0.1141010000
  H        23.3677370000        4.3635450000       -1.2868690000
  O        13.5765550000        1.7310980000       -8.5486230000
  H        13.9155470000        1.8115870000       -7.5892650000
  H        12.6480670000        1.8816510000       -8.3636560000
  O        -0.3023010000       22.5052340000        1.0374360000
  H         0.6083050000       22.6096520000        0.7132800000
  H        -0.2762090000       23.1326120000        1.7944430000
  O        29.1662270000       31.9003260000       -0.7085300000
  H        28.3178710000        0.1371060000       -0.2965210000
  H        28.9695470000       -0.3154760000       -1.6010830000
  O        23.7271580000       29.3240490000       -6.7753000000
  H        22.9939730000       29.9156040000       -6.7439610000
  H        23.7792700000       29.1015300000       -5.8212040000
  O        20.0993060000       15.9862350000      -10.7836200000
  H        19.5620120000       16.5381010000      -11.3601720000
  H        20.8216130000       16.6010970000      -10.4584900000
  O        13.7867110000       16.5204220000      -11.4646050000
  H        13.7554710000       17.2452010000      -10.8139880000
  H        13.5390180000       17.0586450000      -12.2914990000
  O        19.4711610000       31.4473970000      -10.3193040000
  H        18.5046370000       31.4228480000      -10.6472070000
  H        19.5182720000       32.3776130000       -9.9042170000
  O        21.2164400000        5.9721270000       -4.4945000000
  H        22.0088900000        6.2362430000       -4.9941890000
  H        21.5223220000        5.0953810000       -4.1962960000
  O        26.0522590000        2.8768520000       -0.5696060000
  H        26.6047690000        3.4444570000       -1.1353750000
  H        25.1625650000        2.9189350000       -1.0469560000
  O         0.3653050000        6.6989910000       -9.1660340000
  H         0.7854050000        7.3896420000       -9.6517890000
  H         0.5316230000        5.9771410000       -9.8648410000
  O        23.2543320000       13.7812980000        1.5017830000
  H        24.0018500000       13.2423970000        1.1799680000
  H        23.6725730000       14.6805930000        1.4206170000
  O        18.0480270000        9.5264640000        4.0556010000
  H        18.7936820000        9.5467440000        3.5002430000
  H        17.2900730000        9.8680900000        3.5181810000
  O         1.2353910000       29.3441390000       -0.5748330000
  H         1.4088250000       29.8115830000        0.2856720000
  H         0.6026120000       29.9972440000       -0.9757070000
  O        28.7572080000        6.4343500000      -13.7483090000
  H        29.0274220000        5.5169990000      -13.5475780000
  H        28.1094400000        6.2246050000      -14.4109910000
  O        16.6951690000        1.2737490000       -3.3910560000
  H        17.5887550000        1.5601270000       -3.6255200000
  H        16.5348010000        1.8923130000       -2.6393300000
  O        22.6883510000       -2.8282900000        2.4314100000
  H        22.0406070000       -2.9999390000        1.7243840000
  H        22.3915710000       -1.8841790000        2.6838220000
  O         1.6873490000        8.7569350000      -10.6039920000
  H         1.7518110000        9.6835980000      -10.2382600000
  H         2.1455340000        8.9386370000      -11.4968870000
  O        28.8422740000       30.6734160000       13.5990490000
  H        28.2357960000       30.6528760000       12.8403140000
  H        29.4066810000       29.8641240000       13.4341120000
  O        10.0077220000        0.3989860000        5.4587890000
  H         9.3293700000       -0.2680450000        5.4817070000
  H         9.6302360000        1.0750820000        6.0432270000
  O         7.9491070000        3.2853790000       -1.3327700000
  H         8.8452390000        3.0336010000       -1.5068310000
  H         8.0619560000        4.1892100000       -1.1436800000
  O        12.2476070000       -2.0363400000      -10.7788930000
  H        11.5025550000       29.3348880000      -10.7084690000
  H        12.8271480000       -2.3336150000      -10.0680240000
  O        27.8554800000       18.8426650000        8.7092090000
  H        28.4376390000       18.2284760000        8.1963370000
  H        28.4261880000       19.6025640000        8.9002480000
  O        27.0161060000        9.7435960000        1.1118850000
  H        27.8897840000        9.6587760000        0.6061570000
  H        26.8481240000        8.8621730000        1.4105730000
  O        23.7267000000        7.4327570000       -5.4524340000
  H        23.9146770000        7.3022870000       -4.5374370000
  H        24.5930100000        7.7179360000       -5.7920100000
  O         7.0274730000        4.2382990000      -12.1095570000
  H         7.8103270000        3.6413020000      -12.1605630000
  H         6.3349420000        3.5555720000      -12.2142810000
  O        12.4664300000        5.1985810000        5.1594510000
  H        13.0218930000        5.9135550000        5.0808740000
  H        11.5664520000        5.5019180000        4.8686590000
  O        12.3098460000        2.5719340000       -0.5006240000
  H        11.9251560000        2.4119220000        0.3859880000
  H        12.9952610000        1.9255860000       -0.5539120000
  O         5.0425200000        2.3969770000      -11.5213850000
  H         4.4389710000        1.8148380000      -12.0817390000
  H         5.4595570000        1.7445450000      -10.9267610000
  O        28.9419840000        5.2041900000        1.5461980000
  H        29.9086110000        4.9818450000        1.6245610000
  H        28.8420050000        5.4784000000        0.6208010000
  O        16.2472630000       13.9824500000        2.7729480000
  H        16.2409500000       13.1962310000        2.1680100000
  H        15.3770100000       13.7857300000        3.2670180000
  O         6.9401660000       10.9119800000       -8.3620590000
  H         7.9137160000       10.9108400000       -8.7041870000
  H         6.5590500000       11.4975400000       -9.0618970000
  O        11.5252400000       16.4816380000       -4.3771490000
  H        11.5141410000       17.3980830000       -4.7373820000
  H        10.5674800000       16.2949200000       -4.2483780000
  O        30.0807130000        4.4511400000       11.6343300000
  H        29.3212720000        4.5149310000       12.2124440000
  H        29.5670280000        4.1656430000       10.7869260000
  O        22.6086330000        8.9946990000       12.2280470000
  H        22.9783230000        9.3040040000       11.3783910000
  H        22.4730640000        8.0639330000       12.0291460000
  O        15.1849640000       -0.6748020000       -8.5746770000
  H        14.5454210000        0.0663840000       -8.4413600000
  H        15.8132190000       -0.4231710000       -7.8472280000
  O        19.6367910000       17.2977730000        0.4831280000
  H        19.3173920000       16.7218300000        1.2049650000
  H        18.7718390000       17.7328760000        0.2287640000
  O         6.8396010000       12.1229350000       13.7820540000
  H         7.7185580000       12.3444810000       14.1094710000
  H         6.9578210000       11.3700880000       13.2233690000
  O        10.2435800000       20.7045400000        5.6792200000
  H         9.7865040000       20.6965580000        4.7820760000
  H         9.6015180000       21.2653390000        6.1746350000
  O         8.6518740000       27.0242540000       -1.9854790000
  H         8.5344380000       26.1378900000       -1.5975500000
  H         7.8301620000       27.1119770000       -2.5544840000
  O        10.6120200000        0.0072010000      -11.2464960000
  H        11.2548430000       -0.7303890000      -11.0752940000
  H        11.1834950000        0.6946800000      -11.6878990000
  O        15.4682360000       20.7592350000        6.9843270000
  H        15.2604590000       20.1369630000        7.6723590000
  H        14.6584220000       20.9814890000        6.4958620000
  O         6.1987580000        1.1746410000        9.9076690000
  H         6.6463670000        0.6122180000       10.5948330000
  H         5.5660550000        0.5127900000        9.5389030000
  O        21.1023200000        3.1161180000      -10.9211340000
  H        21.0667860000        3.9547400000      -11.4357190000
  H        20.8317790000        2.5000890000      -11.6470080000
  O        29.5931030000       24.9138030000      -11.4909320000
  H        30.4285280000       25.4421560000      -11.8016440000
  H        28.9664520000       25.5697360000      -11.7014590000
  O         9.4629840000       30.0769690000        7.5709720000
  H         9.8395550000       29.2114120000        7.3159340000
  H         8.7096160000       30.1392140000        6.9776860000
  O         6.7405940000       19.3545590000       -2.1883900000
  H         7.1274920000       18.9923880000       -2.9284160000
  H         6.2012610000       18.7236480000       -1.7446470000
  O        25.9620040000       20.2603610000        7.2596980000
  H        26.0535810000       21.1712020000        7.7524500000
  H        26.6001970000       19.7636510000        7.7791640000
  O         9.6509150000        7.9255240000        3.0214260000
  H         8.6916930000        8.0496500000        2.8883300000
  H         9.8659860000        7.6685050000        2.0889540000
  O        27.5828690000        2.3198740000       12.4628090000
  H        26.7996370000        1.7268900000       12.4259160000
  H        28.2754780000        1.6770410000       12.6758120000
  O         9.0626530000       -1.8176920000       -0.0899750000
  H         9.5407360000       -1.8581860000       -1.0384230000
  H         9.6018840000       -1.1119570000        0.3355740000
  O        19.9492930000       22.4435180000        4.8375770000
  H        19.1526340000       22.9220260000        4.6237980000
  H        19.9353290000       21.8010620000        4.0670180000
  O        26.3959120000       28.1219310000        2.8816240000
  H        26.7191540000       28.1936610000        3.8277350000
  H        26.2885630000       29.0586640000        2.5916480000
  O        22.8246310000       11.0170110000       -3.4281980000
  H        23.5476440000       11.2414920000       -2.8045450000
  H        22.1088220000       11.4741720000       -3.0181860000
  O        13.8006320000        1.1291490000       12.5243640000
  H        13.3916850000        1.6272620000       11.7879310000
  H        13.0385000000        0.6562290000       12.8960990000
  O         7.6407820000       29.2740970000       13.1068000000
  H         7.2255810000       29.5161090000       13.9149280000
  H         8.5902010000       29.2538930000       13.4045100000
  O         2.9134620000        3.3068940000        1.7103170000
  H         3.4674160000        3.6825580000        2.4036690000
  H         3.4056370000        2.3842920000        1.5787480000
  O        10.1072880000       12.6873440000      -11.1791990000
  H        10.1140180000       13.4899240000      -11.5659900000
  H        10.8548220000       12.1753730000      -11.6387620000
  O         6.2038240000       29.9859680000       -4.8784230000
  H         5.6841730000       -1.3683200000       -4.3721930000
  H         6.6141790000       30.6028270000       -5.5197820000
  O        29.6695310000       16.9909920000      -13.7209740000
  H        29.6276000000       16.2099530000      -13.1349690000
  H        28.7749650000       17.2110960000      -13.8876410000
  O        15.1626540000       16.6260970000        7.0293770000
  H        15.6419880000       17.4199980000        6.7183710000
  H        15.2893350000       16.3947280000        7.9462700000
  O        14.9048150000       10.3559910000        0.4160140000
  H        14.3543300000       11.0862610000        0.0392660000
  H        14.3147410000        9.5915430000        0.1143560000
  O        11.1138160000       17.3718930000       -9.9743820000
  H        10.8175080000       17.7333030000      -10.8358070000
  H        12.0138700000       17.7785110000       -9.9005010000
  O        20.5799730000       28.4318520000       -4.5400690000
  H        21.4406380000       28.7509290000       -4.2236480000
  H        20.5601180000       -2.8602530000       -5.3234330000
  O        25.9936260000        6.8653080000      -11.8305490000
  H        25.2838340000        7.1488120000      -11.1821600000
  H        26.1944750000        7.7154750000      -12.2616750000
  O        12.0422400000       20.8450070000        1.0305370000
  H        11.7978350000       19.8987730000        1.1074230000
  H        11.5794410000       21.0423490000        0.1659510000
  O        26.1074500000        0.0674770000       -8.4381720000
  H        26.8727260000        0.0998990000       -8.9912610000
  H        25.4387720000       -0.2045850000       -9.0788430000
  O        16.5506170000       21.2692510000       -9.2228990000
  H        16.9244900000       22.1138310000       -9.3756650000
  H        15.7388750000       21.4332900000       -8.7570370000
  O        22.7591650000       12.4666310000        7.5427820000
  H        23.2904190000       11.7698870000        7.8701980000
  H        23.3539940000       13.1653080000        7.0716430000
  O         8.7900400000       14.3468630000       13.1751850000
  H         8.6902180000       14.4350020000       12.1345540000
  H         9.1234980000       15.1924440000       13.4346100000
  O        12.4749010000        3.5719800000        7.2041240000
  H        12.2987830000        3.9688940000        6.3286350000
  H        11.7036550000        3.8370430000        7.6911960000
  O        21.3282130000       17.9689920000        8.1772340000
  H        21.4749550000       17.3694780000        8.9425190000
  H        22.2243040000       18.4942400000        8.0904830000
  O        27.8400360000       24.1016040000       11.2246670000
  H        27.9054340000       25.0832580000       11.3860550000
  H        26.8777600000       24.0419410000       11.0386950000
  O         9.9759050000        6.9565220000        0.5667030000
  H         9.1916220000        6.3705840000        0.7262550000
  H        10.4785420000        6.3851850000       -0.0248210000
  O         3.8514260000        1.2549000000        6.3845790000
  H         3.2816400000        1.8888020000        6.8315630000
  H         3.2146630000        0.9987470000        5.6638450000
  O         1.9460640000        2.5783510000        7.5035950000
  H         0.9980930000        2.5221740000        7.3751850000
  H         2.0512230000        2.4193550000        8.4906810000
  O        11.5805680000       -1.0787880000        3.7837190000
  H        11.0024710000       -0.6728340000        4.5399690000
  H        12.4063250000       -0.6948210000        4.1247530000
  O        14.1791930000       17.4424630000       12.6752480000
  H        13.7445180000       16.7793600000       12.1486690000
  H        14.0023020000       17.1668550000       13.5564280000
  O        22.9244040000       25.6538110000      -12.1352820000
  H        22.9191880000       24.8214720000      -12.6767950000
  H        21.9589650000       25.7019210000      -11.8691820000
  O        11.0077980000        2.5650550000       -6.9998360000
  H        10.3297010000        3.2726430000       -7.1693220000
  H        11.7078150000        3.0393230000       -6.4878950000
  O        17.7319370000       28.1728670000       -0.6069750000
  H        17.5386920000       28.7941190000        0.0750540000
  H        16.9270480000       28.0611380000       -1.0239330000
  O        14.9269630000       22.5136660000       -0.8630110000
  H        15.0785780000       21.9175610000       -0.1121020000
  H        15.6497760000       23.1872390000       -0.6535080000
  O         9.8356360000        3.5243620000       10.7197710000
  H        10.1973320000        3.4292260000        9.7791190000
  H         9.0522790000        4.0374660000       10.4418310000
  O        21.4116940000       29.3369710000        5.8531700000
  H        20.5338500000       29.4560260000        5.4048070000
  H        21.1819100000       29.8586430000        6.6902010000
  O         4.3623810000       14.8672400000        5.3297130000
  H         3.7076430000       14.1179010000        5.3182960000
  H         4.3543740000       15.1939600000        6.1969130000
  O         5.3899080000        5.7038600000       -1.0348650000
  H         5.2914610000        5.1710230000       -1.8251510000
  H         5.6076740000        4.9796430000       -0.4274670000
  O        15.6176330000       13.4617350000        5.8121900000
  H        16.4867760000       12.9821260000        5.9239290000
  H        15.8634680000       14.4038360000        5.7885770000
  O        16.4398250000        7.9825770000       -8.6108110000
  H        15.4869480000        7.9141310000       -8.5126960000
  H        16.7187650000        8.6023860000       -7.9244150000
  O        -0.2621420000       18.6317560000      -13.5003090000
  H         0.4931680000       18.0789280000      -13.7688670000
  H        -1.0248190000       18.0215570000      -13.5513810000
  O        22.7760580000        6.4597620000        3.9981970000
  H        22.2006910000        5.8403840000        3.4789520000
  H        23.4939840000        5.8228580000        4.2969310000
  O         7.0627170000        1.6791900000       -3.2677610000
  H         7.4362920000        2.2532670000       -3.9878210000
  H         7.2665350000        2.2836160000       -2.5350100000
  O        18.6841350000        3.7495040000       11.1419320000
  H        18.5969070000        2.8385890000       11.3853400000
  H        19.6843410000        3.7211460000       10.8544010000
  O         8.3967330000       21.7748070000        3.5766070000
  H         8.3381650000       21.8552470000        2.6213830000
  H         7.5030360000       21.2842460000        3.7132020000
  O         6.9463660000       24.1108040000       13.3497730000
  H         7.5620530000       23.5915430000       13.8693810000
  H         7.4748390000       24.8264240000       13.0186300000
  O        20.8749180000       -0.7225880000       -2.4072330000
  H        21.2454700000       -0.0391750000       -3.0692810000
  H        20.2979030000       -0.1069040000       -1.9273710000
  O        10.8990220000       27.4359400000       -5.7688810000
  H        10.6731970000       -3.7293600000       -5.3246930000
  H        10.2379440000       -5.1727650000       -5.3193300000
  O         2.0231650000       21.1284500000       -9.9872420000
  H         2.4626900000       21.9639680000       -9.8729980000
  H         1.2495740000       21.2469080000       -9.4288300000
  O        -0.8630700000       -4.1473010000        5.7023530000
  H        -0.8685140000       -5.0572270000        5.9911210000
  H        -0.8303810000       27.7949470000        4.7089860000
  O        12.1464610000       11.1642610000      -12.1847420000
  H        11.9914640000       10.2264280000      -12.2417090000
  H        12.6186790000       11.2520370000      -13.0664280000
  O        22.3004320000        0.8775320000        0.2891970000
  H        21.9535140000       -0.0327330000        0.1039240000
  H        22.5187630000        0.7860890000        1.2473030000
  O        15.6172430000        7.8189430000       -0.9565260000
  H        15.2147140000        8.3939530000       -1.6661370000
  H        16.5263290000        8.0166670000       -0.9234850000
  O        14.6615730000       10.8169360000       12.4101770000
  H        14.5453660000       10.0015160000       11.8855300000
  H        13.9157580000       11.3192460000       12.6079580000
  O        23.9150520000       28.7669450000       -0.2361820000
  H        23.9263860000       27.7914070000       -0.0781320000
  H        23.6110670000       -2.8958380000        0.6276970000
  O         2.0484180000        7.0063180000       -0.1809410000
  H         2.4443640000        6.1083840000       -0.2877790000
  H         1.6643890000        6.9034590000        0.7355730000
  O        26.8226660000       24.4956820000       -2.9909500000
  H        26.2512260000       25.1028980000       -2.4453620000
  H        26.2498420000       23.6780590000       -3.0663240000
  O         1.8462020000       30.1668620000        2.0278000000
  H         1.5775540000       -0.9427250000        2.3474220000
  H         2.8315600000       -1.7864930000        2.3235510000
  O        10.1410730000        6.1200790000        4.8865700000
  H        10.0032410000        6.7091880000        4.1470130000
  H         9.5473930000        6.5696010000        5.4836540000
  O        29.9461100000        3.9454700000        4.9262080000
  H        29.6574130000        3.2099620000        4.4444330000
  H        29.1513710000        4.4534210000        5.1128990000
  O        21.3116820000       11.0466610000        5.8032370000
  H        21.8544200000       11.6845250000        6.4070870000
  H        21.9741440000       10.3830210000        5.5520930000
  O         1.8822610000       14.5700400000        1.8932260000
  H         1.9145100000       15.2391480000        2.6127730000
  H         2.7560530000       14.5092660000        1.6557510000
  O        11.6951500000       16.8418080000        4.9232640000
  H        12.3160080000       17.3039530000        4.3763500000
  H        11.3688520000       16.0913810000        4.4391250000
  O        13.7721820000       28.9543400000       -8.4986000000
  H        14.4976980000       29.5883260000       -8.6848170000
  H        14.2786870000       28.1027410000       -8.3727000000
  O        30.5353070000       27.9837990000       -9.1315840000
  H        29.6484260000       27.6062430000       -9.1368820000
  H        -1.6308370000       28.8407250000       -8.6875550000
  O        -2.8850510000       26.9847150000       -6.0081360000
  H        -3.2880400000       26.1227590000       -5.7608850000
  H        -1.9676580000       26.6572170000       -6.2488270000
  O        -2.4230640000       -2.1282220000        6.5121390000
  H        -1.6449590000       -1.8268020000        7.1017520000
  H        -1.9089030000       -2.8776970000        6.0838970000
  O        14.3340270000        0.6991960000       -0.8257370000
  H        14.7667090000        1.5987060000       -0.8865410000
  H        15.1402610000        0.1136960000       -0.8368890000
  O        18.0915410000       25.1275310000      -12.6571950000
  H        17.9763790000       24.2497790000      -13.0555310000
  H        17.1824170000       25.3807830000      -12.4851230000
  O        13.6767440000       12.8122850000        2.4050970000
  H        13.5564220000       11.9233180000        2.0596220000
  H        12.9035870000       13.2903450000        2.0097000000
  O        -0.7050670000       25.6716800000       12.7791150000
  H         0.2301470000       25.5763230000       13.0066980000
  H        31.1902830000       24.8780330000       12.2265380000
  O         6.6278610000       25.1325400000        6.5440450000
  H         7.1684860000       24.9968110000        5.6880570000
  H         5.9310600000       25.7762390000        6.2352210000
  O        24.8391020000        2.2741870000      -11.9922700000
  H        24.5419200000        2.0760910000      -12.9177340000
  H        24.6489600000        3.2165430000      -11.9587410000
  O         1.3564740000       16.2911970000       -7.5757440000
  H         0.5585440000       16.0632480000       -7.0347160000
  H         0.9392580000       17.0486350000       -8.1096480000
  O        23.6752550000       11.0288220000       -5.9182990000
  H        24.6177440000       11.3078270000       -5.9425940000
  H        23.5873660000       10.9875160000       -4.9043380000
  O        17.7373910000        3.7702970000       -9.3196000000
  H        17.1243380000        3.5530910000       -8.5641270000
  H        18.0666030000        4.6630230000       -9.0252060000
  O        26.1285650000        0.9685790000       -5.9176090000
  H        26.1164280000        0.6554290000       -6.8294970000
  H        27.0133480000        0.7183230000       -5.6273920000
  O        12.3225160000        3.6465850000       14.6789610000
  H        12.6020580000        2.7590270000       14.3511850000
  H        12.7666000000        4.2785800000       14.0943880000
  O        21.8635810000       19.9317490000       -8.3264060000
  H        21.9984990000       20.1141190000       -7.3865360000
  H        20.8983970000       20.0310290000       -8.3747190000
  O        16.8654560000       19.7568380000      -11.5247920000
  H        16.0898670000       20.1507840000      -11.9437080000
  H        16.7184280000       20.1113760000      -10.6251110000
  O        17.0807690000        8.2720850000       11.9518620000
  H        17.9617040000        8.4420470000       12.4110760000
  H        17.0530530000        7.3591680000       11.8167330000
  O        29.7564090000       15.4429050000       -0.1227830000
  H        29.6287860000       14.5267330000        0.3137670000
  H        28.9331550000       15.5201210000       -0.5311500000
  O         9.8322720000       -0.7992280000       -8.5123150000
  H        10.3157230000       -0.4061290000       -9.2594400000
  H         9.0447250000       -1.1062310000       -8.9798910000
  O         1.9768780000       19.1691300000        0.3746570000
  H         1.4651250000       19.4145450000       -0.4397060000
  H         1.5609280000       18.2938860000        0.5427320000
  O        12.9646710000        3.8914210000        2.7842550000
  H        12.8955390000        4.1615300000        3.7384300000
  H        13.3348130000        4.7362310000        2.4822210000
  O         8.6469010000       16.0393310000       -4.2235310000
  H         8.0815820000       16.8280030000       -4.2401460000
  H         7.9828530000       15.3320330000       -3.9862280000
  O        19.5716040000       22.7730880000       12.6621700000