#     Step Nr.          Time[fs]        Kin.[a.u.]          Temp[K]            Pot.[a.u.]        Cons Qty[a.u.]        UsedTime[s]
         0            0.000000         3.844830508       300.000000000     -1262.976850466     -1259.131544936         0.000000000
         1            1.000000         3.562011142       277.932496717     -1262.609196787     -1259.045893888       126.952297114
         2            2.000000         3.571603626       278.680967976     -1262.602588893     -1259.028952811        12.076808071
         3            3.000000         3.729983059       291.038815671     -1262.736387691     -1259.003662514        12.047261376
         4            4.000000         3.793376805       295.985229795     -1262.595334923     -1258.798509332        10.956743229
         5            5.000000         4.154984628       324.200347921     -1262.846292537     -1258.687115024        10.982690012
         6            6.000000         4.145578281       323.466400276     -1262.607427621     -1258.456822649        10.995774679
         7            7.000000         4.285582958       334.390523758     -1262.561549125     -1258.270021987        10.951194415
         8            8.000000         4.738270197       369.712281513     -1262.926292607     -1258.180981828        10.954113670
         9            9.000000         4.731086234       369.151739523     -1262.680919994     -1257.941438665        10.943571724
        10           10.000000         4.871419324       380.101487953     -1262.679180341     -1257.797765359        10.962203130
        11           11.000000         4.979190275       388.510515388     -1262.605852417     -1257.614762791        10.402559737
        12           12.000000         5.055735758       394.483118105     -1262.453631976     -1257.383763195        10.372323563
        13           13.000000         5.512701660       430.138726352     -1262.877561400     -1257.348026089        10.971319819
        14           14.000000         5.490493294       428.405877628     -1262.687543587     -1257.176952410        10.981290175
        15           15.000000         5.432146587       423.853268044     -1262.555698743     -1257.099753664        10.978837110
        16           16.000000         5.614973505       438.118675956     -1262.754127142     -1257.111154754        11.010176860
        17           17.000000         5.466917856       426.566360570     -1262.531682220     -1257.032072839        10.952453742
        18           18.000000         5.494721426       428.735785445     -1262.638626829     -1257.106125392        10.940547310
        19           19.000000         5.324291055       415.437640999     -1262.543363435     -1257.175848962        10.423855674
        20           20.000000         5.067561978       395.405880724     -1262.310647239     -1257.194282889        10.409781300
        21           21.000000         5.295509048       413.191871771     -1262.800049658     -1257.449886650        10.978931196
        22           22.000000         5.142918017       401.285674842     -1262.735002975     -1257.531238777        11.502453126
        23           23.000000         4.902590452       382.533672796     -1262.640585633     -1257.670951356        11.560307898
        24           24.000000         4.776599897       372.703027061     -1262.729641182     -1257.879870405        10.979162503
        25           25.000000         4.453327970       347.479138052     -1262.462551985     -1257.930123507        10.980610792
        26           26.000000         4.511519264       352.019621212     -1262.729702156     -1258.133316299        10.930026773
        27           27.000000         4.360700156       340.251681806     -1262.700599978     -1258.249342334        10.932089141
        28           28.000000         4.017501672       313.472986425     -1262.387582629     -1258.274211993        10.980741592
        29           29.000000         4.140100020       323.038948848     -1262.701596445     -1258.460587031        10.966014208
        30           30.000000         4.073235740       317.821739962     -1262.635977941     -1258.456888986        10.952107590
        31           31.000000         4.050610556       316.056368218     -1262.660248681     -1258.499041163        10.976480726
        32           32.000000         4.030532108       314.489710254     -1262.715989773     -1258.570298185        10.997920856
        33           33.000000         3.749067429       292.527908880     -1262.340697497     -1258.472240640        10.973026225
        34           34.000000         3.984376772       310.888354888     -1262.620627913     -1258.512859205        10.972156031
        35           35.000000         4.151527863       323.930627414     -1262.738914893     -1258.459956139        10.984571952
        36           36.000000         4.079290343       318.294161552     -1262.519851313     -1258.309183773        10.969828578
        37           37.000000         4.280720928       334.011154846     -1262.688026609     -1258.272062777        11.002182035
        38           38.000000         4.266646132       332.912942899     -1262.481802031     -1258.076069604        10.989151666
        39           39.000000         4.482519735       349.756879423     -1262.583821181     -1257.958380726        11.017520715
        40           40.000000         4.711523424       367.625315154     -1262.716796642     -1257.858378541        10.981324976
        41           41.000000         4.507237579       351.685534851     -1262.297012035     -1257.638907935        10.990367221
        42           42.000000         4.708416234       367.382870855     -1262.446338914     -1257.583121126        10.968491400
        43           43.000000         4.918700751       383.790708596     -1262.542262862     -1257.464646280        10.958629886
        44           44.000000         5.008469790       390.795103669     -1262.495695136     -1257.324013517        11.013450822
        45           45.000000         5.229495574       408.041048616     -1262.710707966     -1257.313483763        10.935895991
        46           46.000000         5.060364077       394.844251252     -1262.437600498     -1257.204844434        10.985051705
        47           47.000000         5.128739351       400.179358253     -1262.444534665     -1257.138688682        10.951772649
        48           48.000000         5.313915599       414.628076884     -1262.670399967     -1257.174434532        10.983341521
        49           49.000000         5.094520863       397.509397515     -1262.342963521     -1257.061327724        10.948204186
        50           50.000000         5.109262206       398.659618057     -1262.443650061     -1257.142210214        10.947476756
        51           51.000000         5.040022835       393.257088268     -1262.430060483     -1257.192736713        10.991122970
        52           52.000000         4.988760383       389.257240812     -1262.462693365     -1257.271498472        11.550108993
        53           53.000000         5.132631262       400.483031808     -1262.790900443     -1257.450589403        11.553482153
        54           54.000000         4.804380302       374.870644481     -1262.462510154     -1257.445223176        10.971006412
        55           55.000000         4.652003962       362.981199183     -1262.426547391     -1257.556648156        11.590646448
        56           56.000000         4.686321612       365.658897221     -1262.589701486     -1257.680577761        10.984580526
        57           57.000000         4.487105715       350.114709018     -1262.447759887     -1257.733051044        11.525340999
        58           58.000000         4.505357368       351.538827937     -1262.644407217     -1257.906788049        11.573781390
        59           59.000000         4.295497293       335.164108022     -1262.505009075     -1257.972739480        11.615562972
        60           60.000000         4.142397649       323.218225638     -1262.402396405     -1258.018981018        11.538363518
        61           61.000000         4.333275528       338.111824596     -1262.750745419     -1258.172285970        11.535287136
        62           62.000000         4.128887211       322.164048716     -1262.535071891     -1258.156908297        11.547751779
        63           63.000000         4.025374081       314.087245636     -1262.464200709     -1258.185695282        11.554708036
        64           64.000000         4.051567326       316.131021976     -1262.535257772     -1258.226841648        11.590678860
        65           65.000000         3.979511603       310.508741081     -1262.390821615     -1258.150857085        11.057922196
        66           66.000000         4.223885129       329.576436738     -1262.684127817     -1258.196199854        11.002847530
        67           67.000000         4.169784857       325.355163133     -1262.555067114     -1258.117614988        10.998386618
        68           68.000000         4.075095565       317.966856256     -1262.355337163     -1258.009061298        11.038910931
        69           69.000000         4.329580289       337.823496712     -1262.595982871     -1257.991693684        10.437598592
        70           70.000000         4.318412697       336.952124784     -1262.446449771     -1257.849705632        10.416587768
        71           71.000000         4.409512301       344.060339593     -1262.469492290     -1257.777988953        10.467947515
        72           72.000000         4.457186749       347.780226441     -1262.450003935     -1257.707084442        10.418355584
        73           73.000000         4.396753531       343.064812982     -1262.231342995     -1257.545084752        10.402275981
        74           74.000000         4.765520660       371.838549175     -1262.579199955     -1257.520229332        10.445319291
        75           75.000000         4.861369186       379.317307363     -1262.570082417     -1257.411003604        10.415069712
        76           76.000000         4.799766810       374.510668268     -1262.391537076     -1257.289644003        10.470108474
        77           77.000000         4.931851954       384.816855552     -1262.560433894     -1257.321868274        10.982976608
        78           78.000000         4.862424267       379.399632017     -1262.382760917     -1257.208848920        11.005205546
        79           79.000000         5.015995014       391.382273181     -1262.539193930     -1257.206742624        11.025596790
        80           80.000000         5.035954369       392.939638645     -1262.571170017     -1257.213523749        10.981506953
        81           81.000000         4.793695238       374.036922608     -1262.193318774     -1257.072639891        10.441187799
        82           82.000000         4.942421782       385.641585874     -1262.438910597     -1257.164135967        11.027852930
        83           83.000000         4.936242841       385.159462553     -1262.411020787     -1257.136833494        11.052359225
        84           84.000000         4.847194460       378.211298216     -1262.353914989     -1257.163100330        10.982291719
        85           85.000000         4.824412966       376.433730109     -1262.441351626     -1257.267593767        10.475712387
        86           86.000000         4.536052945       353.933906949     -1262.179195717     -1257.288168716        10.998084746
        87           87.000000         4.577130832       357.139084944     -1262.343841824     -1257.406224205        11.018372918
        88           88.000000         4.595136426       358.544004679     -1262.487864685     -1257.526665181        11.037564965
        89           89.000000         4.324583865       337.433641570     -1262.235424556     -1257.539334549        10.430370664
        90           90.000000         4.321113813       337.162884347     -1262.372055539     -1257.674187315        10.415184448
        91           91.000000         4.208528707       328.378223525     -1262.310107359     -1257.719685521        10.468584608
        92           92.000000         4.180322623       326.177391715     -1262.345777711     -1257.778565947        10.390128832
        93           93.000000         4.239164638       330.768648619     -1262.533900718     -1257.902895933        10.466485042
        94           94.000000         3.963211773       309.236916735     -1262.225078214     -1257.865261052        10.439185010
        95           95.000000         3.993626549       311.610085831     -1262.327525394     -1257.932766775        11.037945271
        96           96.000000         4.084177905       318.675522582     -1262.379746478     -1257.889934412        10.505316509
        97           97.000000         3.997065063       311.878382199     -1262.247214392     -1257.840087770        11.018829757
        98           98.000000         4.097966694       319.751418286     -1262.365513576     -1257.853132990        11.021735253
        99           99.000000         3.992229118       311.501048718     -1262.223467107     -1257.812541451        11.046037026
       100          100.000000         4.052195529       316.180038642     -1262.267264912     -1257.792190476        11.035048096
       101          101.000000         4.273263732       333.429293358     -1262.524049220     -1257.823639627        10.989224795
       102          102.000000         4.150461473       323.847420393     -1262.268016973     -1257.686116225        10.971424479
       103          103.000000         4.242534976       331.031625446     -1262.331577779     -1257.653358741        11.030084452
       104          104.000000         4.374989390       341.366625694     -1262.393164467     -1257.578147682        10.974995187
       105          105.000000         4.442691269       346.649189854     -1262.358513895     -1257.471336915        10.994142784
       106          106.000000         4.689707909       365.923119308     -1262.601220537     -1257.462369787        10.995230462
       107          107.000000         4.601651635       359.052365926     -1262.381427744     -1257.325811391        11.012632709
       108          108.000000         4.607397258       359.500678732     -1262.331140404     -1257.264924259        10.982288847
       109          109.000000         4.826265086       376.578245212     -1262.518971379     -1257.228833335        11.012341835
       110          110.000000         4.784112331       373.289198604     -1262.363792207     -1257.110538395        10.968515599
       111          111.000000         4.862480320       379.404005661     -1262.441830646     -1257.104800405        10.481028087
       112          112.000000         4.842769020       377.865995080     -1262.411970195     -1257.089080335        11.061547244
       113          113.000000         4.792081513       373.911008807     -1262.323813368     -1257.045958406        11.028793851
       114          114.000000         4.996920383       389.893939807     -1262.663187421     -1257.174633580        11.050364092
       115          115.000000         4.871475888       380.105901493     -1262.526998971     -1257.157837645        11.005053829
       116          116.000000         4.742034918       370.006030749     -1262.459736451     -1257.214005337        11.029818544
       117          117.000000         4.754701756       370.994384228     -1262.561825924     -1257.297408965        11.006552104
       118          118.000000         4.614397350       360.046873846     -1262.405271214     -1257.275151836        11.020778354
       119          119.000000         4.666996678       364.151033556     -1262.580787317     -1257.392077290        11.025584964
       120          120.000000         4.542631888       354.447241128     -1262.510050724     -1257.439723021        10.987656115
       121          121.000000         4.335547637       338.289110124     -1262.333103491     -1257.464085794        10.996757993
       122          122.000000         4.430495736       345.697610810     -1262.570156092     -1257.600520492        10.423139920
       123          123.000000         4.297443908       335.315996285     -1262.469488509     -1257.627285230        11.007835291
       124          124.000000         4.185331663       326.568231314     -1262.436947973     -1257.701443193        11.052247250
       125          125.000000         4.140456584       323.066770468     -1262.468568579     -1257.772694688        11.003135288
       126          126.000000         3.970918107       309.838217724     -1262.285996401     -1257.754631681        11.018701587
       127          127.000000         4.096095981       319.605452439     -1262.491453790     -1257.830011582        11.012306457
       128          128.000000         4.078831718       318.258376443     -1262.466996459     -1257.817937124        11.052595329
       129          129.000000         3.921877456       306.011730386     -1262.259032811     -1257.762232308        10.461133717
       130          130.000000         4.013736044       313.179166345     -1262.397772954     -1257.804557154        11.073033869
       131          131.000000         3.990801855       311.389683846     -1262.308385439     -1257.733593672        10.475329978
       132          132.000000         4.064714883       317.156884329     -1262.353301623     -1257.700139909        11.001406474
       133          133.000000         4.132086928       322.413712606     -1262.393642255     -1257.668639091        11.047515878
       134          134.000000         4.028822427       314.356309173     -1262.187972252     -1257.561835026        11.013163749
       135          135.000000         4.236290148       330.544361202     -1262.381246708     -1257.543244955        10.444460830
       136          136.000000         4.358938016       340.114187601     -1262.397116873     -1257.431915435        10.456442241
       137          137.000000         4.351610558       339.542449202     -1262.321866730     -1257.359371878        10.438697707
       138          138.000000         4.463017459       348.235178365     -1262.441521990     -1257.362928515        10.480968520
       139          139.000000         4.404717390       343.686207794     -1262.325856957     -1257.300809271        10.440806588
       140          140.000000         4.526069767       353.154951073     -1262.424008942     -1257.272788300        10.458627181
       141          141.000000         4.651453204       362.938225256     -1262.622531704     -1257.340916358        11.036511287
       142          142.000000         4.512970260       352.132837880     -1262.389449494     -1257.241234735        11.043392820
       143          143.000000         4.598066157       358.772602341     -1262.523532111     -1257.285109116        11.609036598
       144          144.000000         4.641032110       362.125100151     -1262.516727724     -1257.230083210        10.986395199
       145          145.000000         4.637505692       361.849944932     -1262.500848512     -1257.212372181        11.013912531
       146          146.000000         4.697781127       366.553047000     -1262.620204285     -1257.265980116        11.050684908
       147          147.000000         4.506858197       351.655932877     -1262.379559257     -1257.210780105        10.424937077
       148          148.000000         4.503629630       351.404017954     -1262.425029049     -1257.254069123        11.037693111
       149          149.000000         4.568169686       356.439874993     -1262.539786359     -1257.298799529        10.492997719
       150          150.000000         4.420091714       344.885817786     -1262.392526730     -1257.294136842        10.433664387
       151          151.000000         4.397996802       343.161821520     -1262.455486193     -1257.373795893        10.489037441
       152          152.000000         4.280098958       333.962624550     -1262.335893695     -1257.366786569        10.463260101
       153          153.000000         4.237383780       330.629693908     -1262.351184962     -1257.419594017        10.448548717
       154          154.000000         4.337510777       338.442287718     -1262.562256724     -1257.525330092        10.427749339
       155          155.000000         4.168283938       325.238051087     -1262.426467144     -1257.553614900        11.027377915
       156          156.000000         4.118710336       321.369979291     -1262.400493657     -1257.572234840        11.051803630
       157          157.000000         4.146199091       323.514840190     -1262.432912742     -1257.572248680        11.004782103
       158          158.000000         4.070890285       317.638731478     -1262.355093667     -1257.564897760        10.988194877
       159          159.000000         4.134433902       322.596839546     -1262.490213964     -1257.631696257        11.031025782
       160          160.000000         4.028707953       314.347377149     -1262.373927116     -1257.616429281        11.014315266
       161          161.000000         3.974729584       310.135615283     -1262.221773570     -1257.513701096        11.049379256
       162          162.000000         4.112354793       320.874076275     -1262.412700569     -1257.562469223        11.597241616
       163          163.000000         4.052261603       316.185194168     -1262.305989538     -1257.511319698        11.607745308
       164          164.000000         4.071800857       317.709780537     -1262.321435358     -1257.502765627        10.982615065
       165          165.000000         4.101006800       319.988628182     -1262.354587483     -1257.502268321        11.057795858
       166          166.000000         4.082335472       318.531763330     -1262.247447713     -1257.409387503        11.043928815
       167          167.000000         4.244383469       331.175857568     -1262.418858845     -1257.414294108        11.019153368
       168          168.000000         4.213342437       328.753823718     -1262.325174534     -1257.347130370        11.024712030
       169          169.000000         4.171421661       325.482877753     -1262.221238033     -1257.280639674        10.501900952
       170          170.000000         4.287318487       334.525941623     -1262.325602089     -1257.264602087        11.017851250
       171          171.000000         4.281284338       334.055115980     -1262.246527226     -1257.186988570        11.015580053
       172          172.000000         4.379068241       341.684885585     -1262.332090533     -1257.170130700        10.498203244
       173          173.000000         4.395229466       342.945895020     -1262.304802982     -1257.121950596        10.479429511
       174          174.000000         4.332376086       338.041643977     -1262.159775807     -1257.035034067        11.068413520
       175          175.000000         4.480943248       349.633871141     -1262.339561684     -1257.061432395        11.015193310
       176          176.000000         4.474663024       349.143845005     -1262.281699695     -1257.004897882        11.053804820
       177          177.000000         4.442792686       346.657103096     -1262.257516298     -1257.007597421        11.056230294
       178          178.000000         4.472467769       348.972556190     -1262.337359637     -1257.052729666        10.478546042
       179          179.000000         4.382446877       341.948509860     -1262.247503865     -1257.047843344        10.517983809
       180          180.000000         4.447750465       347.043942932     -1262.379371291     -1257.109334223        10.490902692
       181          181.000000         4.433124786       345.902747360     -1262.397585814     -1257.137029934        10.451544547
       182          182.000000         4.312891178       336.521298045     -1262.297666893     -1257.152242068        10.459163925
       183          183.000000         4.365168606       340.600340919     -1262.430446369     -1257.227665676        10.520847743
       184          184.000000         4.320861727       337.143214863     -1262.409163764     -1257.245588401        11.082338925
       185          185.000000         4.295877673       335.193787937     -1262.368444225     -1257.224781429        11.090532128
       186          186.000000         4.288588788       334.625059160     -1262.431897839     -1257.290467313        11.074123450
       187          187.000000         4.152077865       323.973542338     -1262.298646650     -1257.288757330        10.468568197
       188          188.000000         4.187919438       326.770147250     -1262.391161343     -1257.340543907        10.450517194
       189          189.000000         4.174666171       325.736036598     -1262.442456677     -1257.400214649        10.496613290
       190          190.000000         4.069048515       317.495023987     -1262.272141884     -1257.330734212        11.073984290
       191          191.000000         4.088015410       318.974950983     -1262.322046936     -1257.356980425        11.031597180
       192          192.000000         4.032903847       314.674769558     -1262.239164199     -1257.324578948        11.073624866
       193          193.000000         4.078044942       318.196986853     -1262.341830553     -1257.377526296        10.522000844
       194          194.000000         4.146737692       323.556865487     -1262.380091044     -1257.342490006        11.022250295
       195          195.000000         4.057289546       316.577508746     -1262.243719444     -1257.291000870        11.097365731
       196          196.000000         4.113425818       320.957644985     -1262.359840389     -1257.346474790        11.066255732
       197          197.000000         4.156368658       324.308339430     -1262.378803006     -1257.317956463        11.041333999
       198          198.000000         4.164832215       324.968724041     -1262.366772844     -1257.292913900        11.072335608
       199          199.000000         4.250638692       331.663932898     -1262.454451284     -1257.290197055        10.455362147
       200          200.000000         4.200658197       327.764112445     -1262.349076470     -1257.230192086        10.528759912
       201          201.000000         4.253656623       331.899412498     -1262.376316864     -1257.199823084        10.513107639
       202          202.000000         4.360692529       340.251086732     -1262.483289430     -1257.195051636        10.537599090
       203          203.000000         4.333816397       338.154026913     -1262.377855134     -1257.111712661        10.465928193
       204          204.000000         4.389348416       342.487015237     -1262.438497303     -1257.111997139        11.033155991
       205          205.000000         4.370172919       340.990811658     -1262.391115076     -1257.078907733        10.502260145
       206          206.000000         4.366583856       340.710768419     -1262.360217227     -1257.046694435        10.474337019
       207          207.000000         4.456324221       347.712926041     -1262.467664319     -1257.059412603        10.459803730
       208          208.000000         4.390212397       342.554428951     -1262.367501706     -1257.020311976        10.504180903
       209          209.000000         4.382950853       341.987833534     -1262.363771640     -1257.018797831        10.510325208
       210          210.000000         4.396406665       343.037748115     -1262.405982622     -1257.042470087        10.449931312
       211          211.000000         4.322974022       337.308030570     -1262.332851604     -1257.037691353        10.450785402
       212          212.000000         4.353551661       339.693907330     -1262.407089262     -1257.076276129        10.509877555
       213          213.000000         4.295535032       335.167052684     -1262.361066968     -1257.083191210        10.516186591
       214          214.000000         4.231890530       330.201072875     -1262.306025632     -1257.086778212        10.490476171
       215          215.000000         4.272950034       333.404816531     -1262.425561542     -1257.160255064        11.099347631
       216          216.000000         4.215402776       328.914585436     -1262.370289247     -1257.157540512        10.440369738
       217          217.000000         4.206900114       328.251149525     -1262.428122358     -1257.218934799        11.056993356
       218          218.000000         4.179993232       326.151690373     -1262.447610547     -1257.260422081        10.445703305
       219          219.000000         4.079365978       318.300063099     -1262.393109428     -1257.301734851        11.056666853
       220          220.000000         4.096256824       319.618002546     -1262.491781551     -1257.378787089        11.019408418
       221          221.000000         4.048861832       315.919920760     -1262.455142335     -1257.384867090        11.071733339
       222          222.000000         4.021421645       313.778849522     -1262.413253041     -1257.365827199        10.482746696
       223          223.000000         4.066396730       317.288113557     -1262.499678917     -1257.402722456        11.053121353
       224          224.000000         4.017480431       313.471329011     -1262.476597499     -1257.424042496        11.008129789
       225          225.000000         4.051273745       316.108114774     -1262.533716282     -1257.442904266        11.084442835
       226          226.000000         4.052179693       316.178803042     -1262.513670008     -1257.417506197        10.541097473
       227          227.000000         3.992246223       311.502383336     -1262.445400149     -1257.404792057        11.070357475