#     Step Nr.          Time[fs]        Kin.[a.u.]          Temp[K]            Pot.[a.u.]        Cons Qty[a.u.]        UsedTime[s]
         0            0.000000         3.843405441       300.000000000     -1337.091736415     -1333.247855951         0.000000000
         1            1.000000         3.543340524       276.578199607     -1336.701538807     -1333.156908973        59.589836672
         2            2.000000         3.487928159       272.252944301     -1336.668500741     -1333.178557581        14.022868030
         3            3.000000         3.594426507       280.565755672     -1336.773905726     -1333.176795300        12.805161111
         4            4.000000         3.540627329       276.366419057     -1336.651666267     -1333.107730688        12.836429305
         5            5.000000         3.765386572       293.910176517     -1336.963183539     -1333.193900649        13.523583688
         6            6.000000         3.623084650       282.802689364     -1336.785975169     -1333.158422785        13.479166284
         7            7.000000         3.607738605       281.604841843     -1336.704702754     -1333.091975635        12.829913214
         8            8.000000         3.929795571       306.743248758     -1337.084548346     -1333.149259356        12.790213890
         9            9.000000         3.749905279       292.701772135     -1336.844060278     -1333.088142078        13.446616165
        10           10.000000         3.703903769       289.111088517     -1336.836117496     -1333.125711226        14.105135687
        11           11.000000         3.698611726       288.698013985     -1336.836296349     -1333.130721594        13.454798818
        12           12.000000         3.669913786       286.457973976     -1336.762244401     -1333.084937216        14.063778937
        13           13.000000         4.042532995       315.543056005     -1337.236258533     -1333.185906149        14.089883476
        14           14.000000         3.938248027       307.403011772     -1337.047050554     -1333.100513168        13.430397816
        15           15.000000         3.795574208       296.266495853     -1336.847516545     -1333.043178990        12.801741622
        16           16.000000         3.990765709       311.502320246     -1337.110425557     -1333.110419929        12.801346295
        17           17.000000         3.878183053       302.714593499     -1336.921450049     -1333.033522832        12.770673253
        18           18.000000         3.943651685       307.824798501     -1337.060715937     -1333.106806651        13.465354897
        19           19.000000         3.835509631       299.383686358     -1336.957318705     -1333.111024450        13.428990185
        20           20.000000         3.622836938       282.783353945     -1336.662786837     -1333.028663297        13.406524844
        21           21.000000         3.983583248       310.941687716     -1337.139938344     -1333.144585665        13.437799565
        22           22.000000         3.994021068       311.756419811     -1337.122301876     -1333.115984229        13.463210456
        23           23.000000         3.847398033       300.311644813     -1336.928236743     -1333.067996635        13.457438380
        24           24.000000         3.857165179       301.074027051     -1336.978465778     -1333.107916997        13.449647926
        25           25.000000         3.670036309       286.467537608     -1336.718378715     -1333.034431006        13.442362770
        26           26.000000         3.887940261       303.476199954     -1337.015915166     -1333.113557073        12.794242591
        27           27.000000         3.896798377       304.167627111     -1337.015022681     -1333.103280195        12.783144020
        28           28.000000         3.602653406       281.207912682     -1336.660613712     -1333.042505164        12.800966181
        29           29.000000         3.809412836       297.346680744     -1336.964627716     -1333.139288518        12.842345968
        30           30.000000         3.860717939       301.351340469     -1336.990786876     -1333.113664561        12.798419960
        31           31.000000         3.898796760       304.323612413     -1336.998178056     -1333.082489254        12.817409053
        32           32.000000         3.914285546       305.532601665     -1337.049657098     -1333.117976828        12.162222937
        33           33.000000         3.593826658       280.518934038     -1336.622429690     -1333.010718450        12.152190752
        34           34.000000         3.809409793       297.346443247     -1336.886728845     -1333.058986011        12.125494473
        35           35.000000         3.975550761       310.314705639     -1337.079688552     -1333.085340036        12.152208924
        36           36.000000         3.800613552       296.659845807     -1336.800853409     -1332.980958853        12.154007040
        37           37.000000         3.893404165       303.902689231     -1336.979900676     -1333.066738057        12.109206334
        38           38.000000         3.783686214       295.338569247     -1336.790853096     -1332.986925952        12.154147856
        39           39.000000         3.881452708       302.969808953     -1336.903720702     -1333.001550891        12.188243732
        40           40.000000         4.023248185       314.037765207     -1337.110674621     -1333.066207947        12.096262865
        41           41.000000         3.676602388       286.980057986     -1336.650310591     -1332.951976336        12.126548931
        42           42.000000         3.764570656       293.846489566     -1336.805944415     -1333.019166251        12.127718821
        43           43.000000         3.924851116       306.357305495     -1337.041012513     -1333.093474919        12.190956734
        44           44.000000         3.890443128       303.671563220     -1336.962938429     -1333.049309014        12.806888014
        45           45.000000         4.007685115       312.822977615     -1337.154746624     -1333.123354942        12.817804702
        46           46.000000         3.746923085       292.468994682     -1336.803128152     -1333.031962630        12.793106988
        47           47.000000         3.772272925       294.447696153     -1336.804840720     -1333.007815979        12.775296725
        48           48.000000         4.028485557       314.446572336     -1337.138136073     -1333.084377044        12.147865579
        49           49.000000         3.796901211       296.370076153     -1336.810036453     -1332.987311680        12.805870220
        50           50.000000         3.797416706       296.410313491     -1336.855320321     -1333.031547766        12.785900213
        51           51.000000         3.816108690       297.869330871     -1336.885899595     -1333.042908279        12.185651191
        52           52.000000         3.847096721       300.288125684     -1336.882135434     -1333.007629165        12.153367132
        53           53.000000         4.098431143       319.906229389     -1337.229183079     -1333.102787413        12.147143438
        54           54.000000         3.805475850       297.039376246     -1336.844846817     -1333.010814291        12.145321041
        55           55.000000         3.677238413       287.029703424     -1336.716150515     -1333.009795819        12.150600873
        56           56.000000         3.883198669       303.106091295     -1336.960731479     -1333.047873624        12.199208818
        57           57.000000         3.822581495       298.374570699     -1336.863017346     -1333.010219821        12.160327703
        58           58.000000         3.917765786       305.804254523     -1337.012815130     -1333.064272000        12.138722777
        59           59.000000         3.767202885       294.051950208     -1336.848961016     -1333.050412528        12.132291585
        60           60.000000         3.674035696       286.779712872     -1336.696167807     -1332.990247314        12.166858152
        61           61.000000         4.034658441       314.928401563     -1337.193996474     -1333.126914986        12.145057820
        62           62.000000         3.909980294       305.196551883     -1337.020017436     -1333.077030120        12.170748398
        63           63.000000         3.753550646       292.986314088     -1336.823881852     -1333.036745783        12.182686768
        64           64.000000         3.778657797       294.946072303     -1336.946313496     -1333.133512457        12.819911145
        65           65.000000         3.709188644       289.523603526     -1336.791387847     -1333.047513819        12.801862210
        66           66.000000         3.994911220       311.825901331     -1337.171822743     -1333.141683820        12.820665985
        67           67.000000         3.919453782       305.936012350     -1337.089097686     -1333.133834621        12.805192746
        68           68.000000         3.674107250       286.785298042     -1336.755361655     -1333.044873465        12.787318490
        69           69.000000         3.896710580       304.160774061     -1337.051847873     -1333.118205626        12.796411522
        70           70.000000         3.890384525       303.666988863     -1336.972546842     -1333.044656312        12.809454851
        71           71.000000         3.917956416       305.819134276     -1337.027808945     -1333.071757262        13.483327977
        72           72.000000         3.890877723       303.705485836     -1337.073212041     -1333.143632958        14.744755700
        73           73.000000         3.665131017       286.084651212     -1336.752719794     -1333.048293327        14.743684761
        74           74.000000         3.953770738       308.614649060     -1337.133103859     -1333.139458220        14.741003685
        75           75.000000         4.032510709       314.760758668     -1337.222461806     -1333.149447893        14.106724374
        76           76.000000         3.828349288       298.824780248     -1336.948576332     -1333.079070698        12.807456620
        77           77.000000         3.883577129       303.135632292     -1337.050412596     -1333.125031137        12.780099824
        78           78.000000         3.796007602       296.300324786     -1336.905572457     -1333.067107158        12.916390486
        79           79.000000         3.958499177       308.983730991     -1337.111914739     -1333.110297547        12.812372126
        80           80.000000         4.027050767       314.334578711     -1337.220422198     -1333.149547927        13.447241142
        81           81.000000         3.717981644       290.209947969     -1336.816250688     -1333.053729857        13.448204055
        82           82.000000         3.865928922       301.758087814     -1337.058691009     -1333.147531361        14.156900004
        83           83.000000         3.956197878       308.804101327     -1337.139881379     -1333.137732006        14.089188494
        84           84.000000         3.900166307       304.430513535     -1337.049088868     -1333.102223428        13.522670150
        85           85.000000         3.942172233       307.709318680     -1337.157445328     -1333.167808844        13.420249581
        86           86.000000         3.691671252       288.156269861     -1336.820807929     -1333.080910606        13.490950733
        87           87.000000         3.820282152       298.195093659     -1336.987553146     -1333.118311030        13.457363375
        88           88.000000         4.018445968       313.662924416     -1337.247150404     -1333.178976535        13.446033858
        89           89.000000         3.789809171       295.816501461     -1336.925944763     -1333.085613245        13.491007373
        90           90.000000         3.823325409       298.432637424     -1337.038169545     -1333.163546133        14.141194083
        91           91.000000         3.806507699       297.119918053     -1336.977805146     -1333.119222202        14.789817512
        92           92.000000         3.854420823       300.859814140     -1337.000742390     -1333.093466463        15.424972042
        93           93.000000         4.038499669       315.228231588     -1337.253250605     -1333.161081020        16.038978741
        94           94.000000         3.758603110       293.380688105     -1336.887749231     -1333.074638196        15.401560135
        95           95.000000         3.753932811       293.016144289     -1336.899376789     -1333.090132799        15.434262425
        96           96.000000         3.949670724       308.294619241     -1337.111984853     -1333.106186476        14.745911099
        97           97.000000         3.875421287       302.499021722     -1336.977995936     -1333.045597125        14.787474371
        98           98.000000         3.955954895       308.785135089     -1337.115285047     -1333.101485460        14.791735612
        99           99.000000         3.811479997       297.508034582     -1336.955598424     -1333.085390516        14.738929197
       100          100.000000         3.786489516       295.557383154     -1336.897642913     -1333.051558628        14.806148924
       101          101.000000         4.052939364       316.355333225     -1337.260476803     -1333.147045813        14.829743996
       102          102.000000         3.884487816       303.206716687     -1337.018117321     -1333.072191405        14.154094741
       103          103.000000         3.828649133       298.848184905     -1336.964990528     -1333.073965543        12.827887133
       104          104.000000         3.877941340       302.695726443     -1337.041814926     -1333.100554159        12.840180434
       105          105.000000         3.822662809       298.380917716     -1336.909002375     -1333.022066016        12.809572309
       106          106.000000         3.999419131       312.177769817     -1337.120142924     -1333.055472024        12.820015922
       107          107.000000         3.822516418       298.369491031     -1336.930193583     -1333.041417267        12.828206375
       108          108.000000         3.680417921       287.277882410     -1336.751026949     -1333.003377894        12.862565339
       109          109.000000         3.906023907       304.887733015     -1337.072363815     -1333.098142568        13.534165420
       110          110.000000         3.823041781       298.410498670     -1336.927279474     -1333.035043680        12.848660253
       111          111.000000         3.814839777       297.770284818     -1336.961425601     -1333.076401550        12.809837475
       112          112.000000         3.767612786       294.083945349     -1336.982810463     -1333.144029420        14.177116312
       113          113.000000         3.636881588       283.879620064     -1336.790752424     -1333.081750890        14.776311606
       114          114.000000         3.882870388       303.080467084     -1337.085451377     -1333.129518562        13.477678277
       115          115.000000         3.804010644       296.925008494     -1336.982769624     -1333.104725831        13.475654483
       116          116.000000         3.640728848       284.179920946     -1336.781527633     -1333.065827750        14.108516216
       117          117.000000         3.770326847       294.295793509     -1336.973662925     -1333.127456395        14.102454796
       118          118.000000         3.735400825       291.569615656     -1336.890571396     -1333.078381637        14.144811668
       119          119.000000         3.855363016       300.933357764     -1337.011457171     -1333.078395962        13.513427295
       120          120.000000         3.813852214       297.693199865     -1336.926964277     -1333.034489515        12.842443541
       121          121.000000         3.594146290       280.543883106     -1336.632987043     -1332.959328000        13.453235857
       122          122.000000         3.816534253       297.902548461     -1336.932155626     -1333.035248714        12.834244162
       123          123.000000         3.876059129       302.548809012     -1337.008316985     -1333.050994614        12.785092466
       124          124.000000         3.831371268       299.060663204     -1336.944983681     -1333.031445590        13.439388096
       125          125.000000         3.887271887       303.424029502     -1337.066331377     -1333.095980102        13.462520070
       126          126.000000         3.753688542       292.997077638     -1336.866994584     -1333.029311702        13.449356124
       127          127.000000         3.939083059       307.468190813     -1337.100366688     -1333.076370310        13.430511311
       128          128.000000         4.017088475       313.556964220     -1337.221313681     -1333.118336239        12.831440374
       129          129.000000         3.776541797       294.780906223     -1336.905614036     -1333.042192336        12.792483456
       130          130.000000         3.849541350       300.478943081     -1337.009043752     -1333.071649858        12.791751452
       131          131.000000         3.865334686       301.711704265     -1337.008472120     -1333.054292606        12.787400618
       132          132.000000         3.936203212       307.243402138     -1337.073695277     -1333.047629152        12.810884856
       133          133.000000         4.023587616       314.064259741     -1337.204273440     -1333.089755297        12.154542089
       134          134.000000         3.784151387       295.374878743     -1336.867303364     -1332.991136850        12.147232570
       135          135.000000         3.871994230       302.231520144     -1336.998846648     -1333.033767833        12.181003161
       136          136.000000         3.992409728       311.630645415     -1337.144589780     -1333.057980406        12.109554239
       137          137.000000         3.867027763       301.843858672     -1336.912398264     -1332.950022535        12.132400289
       138          138.000000         3.901720751       304.551846823     -1336.983826508     -1332.985603634        12.171365701
       139          139.000000         3.785448584       295.476132401     -1336.826568707     -1332.943457936        12.148717463
       140          140.000000         3.839589564       299.702148760     -1336.885949975     -1332.947544551        12.146089114
       141          141.000000         4.000320478       312.248125186     -1337.147649425     -1333.047314289        12.142556280
       142          142.000000         3.766568701       294.002448512     -1336.841866894     -1332.974063776        12.141425319
       143          143.000000         3.749814491       292.694685621     -1336.837890954     -1332.985660748        12.961309530
       144          144.000000         3.802128752       296.778115937     -1336.910569889     -1333.004844790        12.777085975
       145          145.000000         3.758901943       293.404013716     -1336.841904733     -1332.978224433        12.813751169
       146          146.000000         3.869386353       302.027960280     -1337.052693207     -1333.077338431        13.451889455
       147          147.000000         3.711610355       289.712632031     -1336.846434852     -1333.027664456        12.767267980
       148          148.000000         3.692487772       288.220003994     -1336.837156642     -1333.036356874        14.717230476
       149          149.000000         3.883282050       303.112599702     -1337.095505891     -1333.102747505        14.742048956
       150          150.000000         3.760481151       293.527280007     -1336.922179496     -1333.051036770        14.746380657
       151          151.000000         3.739172109       291.863986232     -1336.926688366     -1333.075695282        14.105676308
       152          152.000000         3.711760745       289.724370891     -1336.915468879     -1333.090745601        14.035604566
       153          153.000000         3.709018847       289.510349873     -1336.881325592     -1333.058222222        14.092501044
       154          154.000000         3.933602842       307.040428260     -1337.176805849     -1333.127973931        14.046482660
       155          155.000000         3.811631558       297.519864806     -1336.979367166     -1333.051327041        13.409000114
       156          156.000000         3.735431019       291.571972499     -1336.899610442     -1333.046616485        14.089147463
       157          157.000000         3.888551738       303.523929251     -1337.170924672     -1333.163649397        14.023519672
       158          158.000000         3.859875650       301.285594947     -1337.075165817     -1333.095372218        14.109114178
       159          159.000000         3.924274113       306.312267053     -1337.173494574     -1333.128086271        14.682317659
       160          160.000000         3.820019824       298.174617481     -1337.054615158     -1333.112228501        13.419423796
       161          161.000000         3.717424394       290.166451394     -1336.923071588     -1333.082074610        14.072928891
       162          162.000000         3.974235063       310.212007804     -1337.232674220     -1333.133641609        13.420530677
       163          163.000000         3.968811540       309.788670564     -1337.216618426     -1333.121713066        14.071616575
       164          164.000000         3.881022401       302.936221009     -1337.109097872     -1333.100665897        13.391026005
       165          165.000000         3.874487408       302.426127065     -1337.107251455     -1333.104033503        13.397756182
       166          166.000000         3.794131854       296.153911855     -1336.959542972     -1333.035358785        12.772691563
       167          167.000000         3.960053756       309.105074895     -1337.176782813     -1333.085332366        12.737529881
       168          168.000000         3.916335546       305.692616053     -1337.125235448     -1333.076107589        12.742177568
       169          169.000000         3.715614195       290.025154881     -1336.871767112     -1333.021986237        12.731454894
       170          170.000000         3.828008758       298.798199945     -1336.964402754     -1333.000874922        12.797057800
       171          171.000000         3.848804963       300.421463888     -1336.958957625     -1332.973251282        12.740749769
       172          172.000000         3.885730184       303.303690732     -1336.974547023     -1332.950509815        12.079771556
       173          173.000000         3.864204571       301.623492246     -1336.962506643     -1332.958568099        12.116463602
       174          174.000000         3.672051149       286.624807468     -1336.710921966     -1332.897738140        12.106707700
       175          175.000000         3.821411956       298.283281372     -1336.869817293     -1332.905896089        12.122243382
       176          176.000000         3.898141710       304.272481983     -1336.959553226     -1332.917479228        12.112623431
       177          177.000000         3.783964114       295.360260950     -1336.839424057     -1332.910094409        12.114190705
       178          178.000000         3.813714935       297.682484438     -1336.916069917     -1332.955569272        12.071362995
       179          179.000000         3.750228574       292.727007148     -1336.817287674     -1332.918857001        12.092870593
       180          180.000000         3.844247502       300.065727692     -1336.929970603     -1332.936102867        12.080206297
       181          181.000000         3.913539406       305.474361131     -1337.049955526     -1332.985337037        11.454238698
       182          182.000000         3.712087404       289.749868473     -1336.798319473     -1332.933701445        12.088649236
       183          183.000000         3.780904219       295.121418527     -1336.826153629     -1332.891301389        12.108755641
       184          184.000000         3.880079295       302.862606177     -1336.934137398     -1332.898662450        12.109047420
       185          185.000000         3.883229784       303.108520010     -1336.915620419     -1332.875512925        12.062897950
       186          186.000000         3.925289992       306.391562252     -1337.000696798     -1332.917019165        12.153127626
       187          187.000000         3.760612063       293.537498469     -1336.783042800     -1332.862535831        12.066367820
       188          188.000000         3.797104758       296.385964156     -1336.837079605     -1332.878599478        12.073385388
       189          189.000000         3.916175741       305.680142350     -1336.967309525     -1332.888245050        12.127090514
       190          190.000000         3.780794456       295.112850818     -1336.785129751     -1332.839918859        12.067562491
       191          191.000000         3.780462975       295.086976830     -1336.809787192     -1332.863406860        12.112848490
       192          192.000000         3.771632053       294.397672353     -1336.805386857     -1332.866342072        12.106914312
       193          193.000000         3.810509288       297.432265147     -1336.826339701     -1332.846920706        12.083230436
       194          194.000000         3.948586636       308.209999915     -1337.013500359     -1332.894467569        12.074694306
       195          195.000000         3.795460916       296.257652768     -1336.804428611     -1332.836965933        12.074577481
       196          196.000000         3.757781766       293.316577418     -1336.753069287     -1332.821766947        12.095451415
       197          197.000000         3.860681577       301.348502235     -1336.858524670     -1332.822796242        12.072732762
       198          198.000000         3.822806058       298.392099103     -1336.781018469     -1332.781618683        12.156417482
       199          199.000000         3.870741799       302.133760658     -1336.846584613     -1332.797694703        12.070434488
       200          200.000000         3.792391027       296.018030183     -1336.737421837     -1332.765325012        12.071685769
       201          201.000000         3.772274891       294.447849576     -1336.707557753     -1332.754041162        12.208456457
       202          202.000000         3.943511753       307.813876000     -1336.889638390     -1332.763321116        12.069832928
       203          203.000000         3.875769899       302.526232911     -1336.814752135     -1332.754571235        12.108090483
       204          204.000000         3.846797132       300.264741044     -1336.804469367     -1332.771661914        12.108689696
       205          205.000000         3.886599090       303.371513850     -1336.887064054     -1332.812844731        12.112773001
       206          206.000000         3.864307401       301.631518726     -1336.826357249     -1332.772803305        12.115637571
       207          207.000000         3.987697885       311.262858886     -1336.977543184     -1332.798937749        12.104324676
       208          208.000000         3.927905229       306.595696613     -1336.905570706     -1332.785053478        12.096949182
       209          209.000000         3.841890437       299.881745165     -1336.820165909     -1332.783969264        12.110376425
       210          210.000000         3.959829556       309.087574761     -1336.964782491     -1332.808936237        12.108656541
       211          211.000000         3.931135498       306.847837746     -1336.898825399     -1332.769919099        12.143105052
       212          212.000000         3.928574597       306.647944662     -1336.932372542     -1332.804257800        12.116181917
       213          213.000000         3.911700081       305.330791226     -1336.952729057     -1332.839703782        12.116463304
       214          214.000000         3.822326312       298.354652133     -1336.836795060     -1332.811368246        11.456154183
       215          215.000000         3.940608799       307.587283666     -1336.999280886     -1332.853786578        12.117325328
       216          216.000000         3.921742749       306.114679484     -1336.955623859     -1332.827169930        12.130891956
       217          217.000000         3.818228544       298.034797679     -1336.856016136     -1332.829264647        12.120524473
       218          218.000000         3.848889471       300.428060230     -1336.911543041     -1332.852337302        12.173775695
       219          219.000000         3.798427860       296.489239924     -1336.885030163     -1332.874498612        12.117485002
       220          220.000000         3.842252297       299.909990424     -1336.955334053     -1332.899199768        12.170120306
       221          221.000000         3.829592685       298.921834546     -1336.975617921     -1332.930360916        12.137526177
       222          222.000000         3.710555075       289.630261382     -1336.820484138     -1332.892520434        12.146763347
       223          223.000000         3.800017503       296.613320723     -1336.900636835     -1332.881496975        12.114560843
       224          224.000000         3.815378320       297.812321251     -1336.924022752     -1332.887798161        12.156842418
       225          225.000000         3.784784208       295.424274073     -1336.861627344     -1332.854286980        12.158769645
       226          226.000000         3.817117347       297.948062389     -1336.909139168     -1332.867769931        12.147462718
       227          227.000000         3.748503718       292.592372209     -1336.814487797     -1332.840057156        12.179271266