#     Step Nr.          Time[fs]        Kin.[a.u.]          Temp[K]            Pot.[a.u.]        Cons Qty[a.u.]        UsedTime[s]
         0            0.000000         3.844830508       300.000000000     -1262.912504698     -1259.067199167         0.000000000
         1            1.000000         3.887023379       303.292176682     -1262.978619476     -1259.090260592        37.390052550
         2            2.000000         3.840104244       299.631224518     -1262.929715596     -1259.087409607        10.893252393
         3            3.000000         3.749352899       292.550183219     -1262.825236799     -1259.072833276        10.902207399
         4            4.000000         3.821438031       298.174758800     -1262.930969925     -1259.105649273        10.377040347
         5            5.000000         3.783729710       295.232497424     -1262.871975088     -1259.083534235        10.366905633
         6            6.000000         3.784110160       295.262182709     -1262.866199246     -1259.076564531        10.339595044
         7            7.000000         3.850680942       300.456490856     -1262.954105583     -1259.097089844        10.347921211
         8            8.000000         3.797717503       296.323920795     -1262.853736671     -1259.048874405        10.360157093
         9            9.000000         3.847651857       300.220140905     -1262.932424580     -1259.076825066        10.377732834
        10           10.000000         3.805891496       296.961711652     -1262.887231575     -1259.072590295        10.356948063
        11           11.000000         3.703812898       288.996840589     -1262.741482262     -1259.028141462        10.426320437
        12           12.000000         3.799284474       296.446186557     -1262.863997282     -1259.054430191        10.365675703
        13           13.000000         3.812557035       297.481802678     -1262.866717719     -1259.043123299        10.346270243
        14           14.000000         3.845532829       300.054799872     -1262.896106626     -1259.038782870        10.400617531
        15           15.000000         3.907175709       304.864599418     -1262.976481323     -1259.056750809        10.345907176
        16           16.000000         3.850391939       300.433940887     -1262.886507804     -1259.022786976        10.361681566
        17           17.000000         3.914005399       305.397498592     -1262.974607188     -1259.046493764        10.361052817
        18           18.000000         3.891191859       303.617429999     -1262.943753792     -1259.037658657        10.374703292
        19           19.000000         3.783142022       295.186641982     -1262.808125552     -1259.009290986        10.358995086
        20           20.000000         3.835649718       299.283651896     -1262.890156302     -1259.038038531        10.364187075
        21           21.000000         3.846952682       300.165586556     -1262.881583162     -1259.017383042        10.395275394
        22           22.000000         3.927645972       306.461829513     -1262.981143527     -1259.035458945        10.354409920
        23           23.000000         3.990653500       311.378108160     -1263.093934434     -1259.084419635        10.366086110
        24           24.000000         3.872909838       302.190941512     -1262.950278843     -1259.057665329        10.386406116
        25           25.000000         3.894451008       303.871731135     -1263.003090909     -1259.088094596        10.385811416
        26           26.000000         3.881395228       302.853029746     -1262.976412942     -1259.073620406        10.331590408
        27           27.000000         3.794796692       296.096019082     -1262.857972472     -1259.040931611        10.377545314
        28           28.000000         3.815835444       297.737606560     -1262.912949484     -1259.074037187        10.341647090
        29           29.000000         3.748072938       292.450311929     -1262.832372517     -1259.060402707        10.343854792
        30           30.000000         3.794049067       296.037684255     -1262.885832776     -1259.067085115        10.326845018
        31           31.000000         3.882247135       302.919501394     -1263.015972244     -1259.108219285        10.336080255
        32           32.000000         3.767914768       293.998507365     -1262.859637104     -1259.065409287        10.912873656
        33           33.000000         3.747939190       292.439875989     -1262.857761175     -1259.082728294        10.374195909
        34           34.000000         3.740951573       291.894654225     -1262.852339952     -1259.083535087        10.314054267
        35           35.000000         3.735589053       291.476233760     -1262.831906368     -1259.067725504        10.338775493
        36           36.000000         3.825138939       298.463528919     -1262.954172311     -1259.099713577        10.336155519
        37           37.000000         3.751142779       292.689841932     -1262.851756463     -1259.070571898        10.321677919
        38           38.000000         3.749259784       292.542917770     -1262.841628565     -1259.061628413        10.312761249
        39           39.000000         3.847806286       300.232190584     -1262.964590795     -1259.085352603        10.312053520
        40           40.000000         3.814151030       297.606177028     -1262.911557229     -1259.065279114        10.357071977
        41           41.000000         3.842643366       299.829344148     -1262.937600853     -1259.062139828        10.324830493
        42           42.000000         3.805216016       296.909006088     -1262.888459311     -1259.049737483        10.304567538
        43           43.000000         3.785323692       295.356870740     -1262.846867159     -1259.027361575        10.306672843
        44           44.000000         3.925178440       306.269295715     -1263.022683169     -1259.062643494        10.361293506
        45           45.000000         3.895414645       303.946920639     -1262.985107319     -1259.054129855        10.368408594
        46           46.000000         3.863838559       301.483138285     -1262.949594850     -1259.049486654        10.883945186
        47           47.000000         3.875926925       302.426355318     -1262.980053297     -1259.067146156        10.371610617
        48           48.000000         3.800744235       296.560087156     -1262.876012689     -1259.037578798        10.300325533
        49           49.000000         3.846457841       300.126975647     -1262.956405821     -1259.071556729        10.332801821
        50           50.000000         3.807749075       297.106652677     -1262.900005227     -1259.053163761        10.322233418
        51           51.000000         3.751106399       292.687003279     -1262.811738699     -1259.020854532        10.340499979
        52           52.000000         3.877981476       302.586665449     -1262.976837827     -1259.058400220        10.279368784
        53           53.000000         3.872069005       302.125333989     -1262.939132779     -1259.025914428        10.333871393
        54           54.000000         3.851517567       300.521770125     -1262.910954959     -1259.017591323        10.293360326
        55           55.000000         3.839027090       299.547177537     -1262.893805550     -1259.012236306        10.285670141
        56           56.000000         3.730925702       291.112367127     -1262.724224989     -1258.950074602        10.281428291
        57           57.000000         3.786486448       295.447596946     -1262.806827460     -1258.976456045        10.323016288
        58           58.000000         3.778726637       294.842123353     -1262.804061055     -1258.980797135        10.255555935
        59           59.000000         3.706280282       289.189362773     -1262.726997931     -1258.975548517        10.266467275
        60           60.000000         3.782096123       295.105033769     -1262.843783610     -1259.015908836        10.272391751
        61           61.000000         3.773472074       294.432126362     -1262.821807844     -1259.001955612        10.250758039
        62           62.000000         3.795936753       296.184974454     -1262.886636819     -1259.043729707        10.299007643
        63           63.000000         3.799967584       296.499487510     -1262.900413683     -1259.052892670        10.855941726
        64           64.000000         3.687003663       287.685268944     -1262.749654437     -1259.014533233        10.782529352
        65           65.000000         3.766780072       293.909970589     -1262.857922094     -1259.042488002        10.295894252
        66           66.000000         3.820569229       298.106968897     -1262.924953136     -1259.055198858        10.262496255
        67           67.000000         3.790460314       295.757665157     -1262.865343526     -1259.025171371        10.240516540
        68           68.000000         3.843673073       299.909688950     -1262.971260023     -1259.077354468        10.226426044
        69           69.000000         3.797204084       296.283860283     -1262.898804377     -1259.050848381        10.790413978
        70           70.000000         3.844217847       299.952195991     -1262.949511408     -1259.054028282        10.270918729
        71           71.000000         3.902602307       304.507751297     -1263.022754351     -1259.068365032        10.312201994
        72           72.000000         3.789086984       295.650508623     -1262.849495333     -1259.008094929        10.259707641
        73           73.000000         3.816585015       297.796093211     -1262.907443517     -1259.038030923        10.240810052
        74           74.000000         3.839836950       299.610368398     -1262.938936535     -1259.045758928        10.298166668
        75           75.000000         3.831124658       298.930575723     -1262.908431375     -1259.023452549        10.252125900
        76           76.000000         3.884661436       303.107881694     -1262.978526039     -1259.039493804        10.238865744
        77           77.000000         3.773958300       294.470065055     -1262.852186477     -1259.023339390        10.821820814
        78           78.000000         3.756753827       293.127654319     -1262.825366463     -1259.013224746        10.231434314
        79           79.000000         3.818186024       297.921014875     -1262.912076732     -1259.038014859        10.294133727
        80           80.000000         3.737435784       291.620328323     -1262.828303210     -1259.034512156        10.230457626
        81           81.000000         3.747755652       292.425555056     -1262.853497247     -1259.048928729        10.839410320
        82           82.000000         3.750893880       292.670421147     -1262.850552183     -1259.042404752        10.778816642
        83           83.000000         3.767426644       293.960420558     -1262.812959688     -1258.987854342        10.285847574
        84           84.000000         3.871908739       302.112828935     -1262.904508768     -1258.974501154        10.273185721
        85           85.000000         3.785010682       295.332447607     -1262.820367488     -1258.976834734        10.269722348
        86           86.000000         3.744231517       292.150577955     -1262.784783856     -1258.981623279        10.848059263
        87           87.000000         3.801627595       296.629012883     -1262.861530600     -1259.000582018        10.253849739
        88           88.000000         3.782788430       295.159052306     -1262.822656368     -1258.980161968        10.253111998
        89           89.000000         3.848489099       300.285468296     -1262.907605953     -1258.999032314        10.292154299
        90           90.000000         3.820142424       298.073666647     -1262.849592008     -1258.968984748        10.217872215
        91           91.000000         3.780203880       294.957388029     -1262.788712659     -1258.947670690        10.270172074
        92           92.000000         3.886422622       303.245301484     -1262.927377003     -1258.979747511        10.314957179
        93           93.000000         3.845105788       300.021479243     -1262.876179330     -1258.969488532        10.242621362
        94           94.000000         3.806977534       297.046451805     -1262.820098099     -1258.951159522        10.797082970
        95           95.000000         3.819160439       297.997045461     -1262.838812774     -1258.957321132        10.282309083
        96           96.000000         3.783937976       295.248747720     -1262.794228598     -1258.947594930        10.252813239
        97           97.000000         3.874867505       302.343692115     -1262.894543795     -1258.956620726        10.260820841
        98           98.000000         3.852549103       300.602257621     -1262.842558978     -1258.926586255        10.223044002
        99           99.000000         3.763598471       293.661720268     -1262.731754243     -1258.904367684        10.299521225
       100          100.000000         3.819635117       298.034083053     -1262.828526960     -1258.944751515        10.263462268
       101          101.000000         3.792713030       295.933437533     -1262.794764988     -1258.937563221        10.305352367
       102          102.000000         3.793279254       295.977618157     -1262.805450432     -1258.947343007        10.243009102
       103          103.000000         3.792417937       295.910412310     -1262.824472238     -1258.966895069        10.243805965
       104          104.000000         3.718144016       290.115052521     -1262.728271377     -1258.944650516        10.282449281
       105          105.000000         3.815888210       297.741723743     -1262.866957220     -1258.985292465        10.235184120
       106          106.000000         3.839805834       299.607940518     -1262.883999783     -1258.978118641        10.264395243
       107          107.000000         3.758272975       293.246188662     -1262.767716118     -1258.943073097        10.226080140
       108          108.000000         3.766425150       293.882277180     -1262.807531651     -1258.974457553        10.272768019
       109          109.000000         3.724532197       290.613502142     -1262.762125985     -1258.970681930        10.834584575
       110          110.000000         3.778242604       294.804355815     -1262.825087322     -1258.979689076        10.819597067
       111          111.000000         3.819225912       298.002154077     -1262.878975286     -1258.992358717        10.255940294
       112          112.000000         3.712618621       289.683923376     -1262.771499152     -1258.991263884        10.263710603
       113          113.000000         3.749667064       292.574696510     -1262.823412125     -1259.005925258        10.785390932
       114          114.000000         3.781817857       295.083321493     -1262.854261438     -1259.004436082        10.248682935
       115          115.000000         3.763625778       293.663850978     -1262.831999192     -1259.000190112        10.243945077
       116          116.000000         3.790698649       295.776261758     -1262.871989097     -1259.012944725        10.279306009
       117          117.000000         3.710384645       289.509613245     -1262.791761894     -1259.012882174        10.832619073
       118          118.000000         3.758104807       293.233067005     -1262.848680442     -1259.021953855        10.785610814
       119          119.000000         3.859409173       301.137527247     -1262.975064439     -1259.046919122        10.262493607
       120          120.000000         3.802862828       296.725394261     -1262.896946853     -1259.025232904        10.237662632
       121          121.000000         3.809163145       297.216988130     -1262.918989487     -1259.040866813        10.275578033
       122          122.000000         3.782403534       295.129020042     -1262.900912565     -1259.049448330        10.214609940
       123          123.000000         3.774563028       294.517250087     -1262.884857111     -1259.041143639        10.227231976
       124          124.000000         3.848913907       300.318614719     -1262.990089725     -1259.071945994        10.254166558
       125          125.000000         3.770318045       294.186027489     -1262.891148077     -1259.051523101        10.239752686
       126          126.000000         3.767393844       293.957861308     -1262.892884850     -1259.056119894        10.233548384
       127          127.000000         3.832363268       299.027220546     -1262.986968090     -1259.085182096        10.219271859
       128          128.000000         3.788680968       295.618828399     -1262.919849940     -1259.061699140        10.247801593
       129          129.000000         3.815159931       297.684898386     -1262.974553631     -1259.089885827        10.232389117
       130          130.000000         3.764826247       293.757519776     -1262.878282318     -1259.043917643        10.239236396
       131          131.000000         3.736978846       291.584674886     -1262.836327471     -1259.029794774        10.220947210
       132          132.000000         3.838766814       299.526869053     -1262.964704732     -1259.056386542        10.237943172
       133          133.000000         3.790731364       295.778814407     -1262.892639354     -1259.032364037        10.233888425
       134          134.000000         3.777095562       294.714855731     -1262.879134310     -1259.032512097        10.260824468
       135          135.000000         3.811514146       297.400429328     -1262.925994223     -1259.044983243        10.253323652
       136          136.000000         3.771687671       294.292895073     -1262.830934768     -1258.989788830        10.228175746
       137          137.000000         3.811090056       297.367338898     -1262.891212702     -1259.010715974        10.252182201
       138          138.000000         3.742476787       292.013661888     -1262.809786555     -1258.997964399        10.251073487
       139          139.000000         3.678551217       287.025751292     -1262.714052951     -1258.966237057        10.217193268
       140          140.000000         3.788240473       295.584458009     -1262.851790604     -1258.994396060        10.255311854
       141          141.000000         3.805322340       296.917302205     -1262.879502629     -1259.005153619        10.217306977
       142          142.000000         3.824903016       298.445120638     -1262.902197911     -1259.008405731        10.256244119
       143          143.000000         3.824745443       298.432825662     -1262.878417828     -1258.984927383        10.225982353
       144          144.000000         3.755794745       293.052820136     -1262.781412231     -1258.957022920        10.207171226
       145          145.000000         3.844133617       299.945623796     -1262.899932762     -1258.987371335        10.273617635
       146          146.000000         3.846858807       300.158261783     -1262.921249579     -1259.006136338        10.272710182
       147          147.000000         3.781289324       295.042081757     -1262.822953584     -1258.973585495        10.216051886
       148          148.000000         3.837883140       299.457918759     -1262.911992919     -1259.006218672        10.260138622
       149          149.000000         3.836777936       299.371683152     -1262.910083250     -1259.005608834        10.226576772
       150          150.000000         3.903097204       304.546366556     -1262.985970156     -1259.015375601        10.225010924
       151          151.000000         3.918302494       305.732787367     -1263.017531728     -1259.031925528        10.244179755
       152          152.000000         3.791614125       295.847693463     -1262.863398418     -1259.004663128        10.238425348
       153          153.000000         3.834132547       299.165271804     -1262.944310176     -1259.043246244        10.220926009
       154          154.000000         3.853506869       300.676989041     -1262.974847066     -1259.054605899        10.259296993
       155          155.000000         3.822079332       298.224797471     -1262.932594851     -1259.043980686        10.216358112
       156          156.000000         3.853995335       300.715102559     -1262.988049865     -1259.067725428        10.237357214
       157          157.000000         3.790270342       295.742842274     -1262.902453229     -1259.046062590        10.222116122
       158          158.000000         3.830568416       298.887173884     -1262.963594430     -1259.067125714        10.218626106
       159          159.000000         3.871895022       302.111758629     -1263.025572712     -1259.088006387        10.230280584
       160          160.000000         3.757107929       293.155283747     -1262.873283630     -1259.050733569        10.202143976
       161          161.000000         3.771982495       294.315899279     -1262.913332036     -1259.076151696        10.271494152
       162          162.000000         3.790494228       295.760311402     -1262.941244778     -1259.085816801        10.233590724
       163          163.000000         3.817758603       297.887664599     -1262.954383870     -1259.071972625        10.225501314
       164          164.000000         3.896572614       304.037273325     -1263.072358307     -1259.111427451        10.206703817
       165          165.000000         3.808824844       297.190591588     -1262.940827842     -1259.067937956        10.264442973
       166          166.000000         3.807099110       297.055938014     -1262.940046722     -1259.069182810        10.213037927
       167          167.000000         3.867401834       301.761169392     -1263.020559340     -1259.089707020        10.209615683
       168          168.000000         3.798055345       296.350281533     -1262.919964974     -1259.058777755        10.236408725
       169          169.000000         3.804137585       296.824859555     -1262.955259194     -1259.088319273        10.180581473
       170          170.000000         3.781579914       295.064755623     -1262.888691369     -1259.044653144        10.774483163
       171          171.000000         3.801790950       296.641758962     -1262.898572929     -1259.034685907        10.740942748
       172          172.000000         3.925887045       306.324585978     -1263.050527613     -1259.062927082        10.205620881
       173          173.000000         3.863426137       301.450958245     -1262.961516830     -1259.036758757        10.245311128
       174          174.000000         3.830015533       298.844034218     -1262.943502537     -1259.052535015        10.216848727
       175          175.000000         3.858511080       301.067451871     -1262.980497588     -1259.061423409        10.768357176
       176          176.000000         3.822919609       298.290361630     -1262.911668297     -1259.028580942        10.730437813
       177          177.000000         3.887364197       303.318769597     -1262.976209669     -1259.029084716        10.253883133
       178          178.000000         3.852103616       300.567497664     -1262.901928362     -1258.990474916        10.213884659
       179          179.000000         3.823599672       298.343424771     -1262.848355634     -1258.965820581        10.214577397
       180          180.000000         3.942463498       307.617994308     -1263.003187041     -1259.002216961        10.244803073
       181          181.000000         3.914611577       305.444796723     -1262.956423268     -1258.983731808        10.206555760
       182          182.000000         3.881014066       302.823288886     -1262.926025222     -1258.987349528        10.222630359
       183          183.000000         3.856111160       300.880193647     -1262.920804609     -1259.007448272        10.251631353
       184          184.000000         3.784872915       295.321698067     -1262.827168524     -1258.985469456        10.197811814
       185          185.000000         3.860330566       301.209420646     -1262.936257822     -1259.019537903        10.259109136
       186          186.000000         3.835162246       299.245615999     -1262.907128740     -1259.016025785        10.200792806
       187          187.000000         3.758099462       293.232649928     -1262.858623749     -1259.045039126        10.770346899
       188          188.000000         3.811983961       297.437087476     -1262.954953477     -1259.087962583        10.748808047
       189          189.000000         3.772000815       294.317328680     -1262.869236093     -1259.042726835        10.228837179
       190          190.000000         3.767549144       293.969978853     -1262.870271581     -1259.048734084        10.203785751
       191          191.000000         3.750702813       292.655512786     -1262.866430025     -1259.062284525        10.248142859
       192          192.000000         3.652928694       285.026506622     -1262.744597903     -1259.038795929        10.222177723
       193          193.000000         3.732096888       291.203751126     -1262.885875773     -1259.101519387        10.217437349
       194          194.000000         3.749499980       292.561659494     -1262.852375542     -1259.051275267        10.735865908
       195          195.000000         3.701521409       288.818042906     -1262.766063680     -1259.013633209        10.793297440
       196          196.000000         3.747534966       292.408335650     -1262.834889394     -1259.037177580        10.241183760
       197          197.000000         3.698345002       288.570197897     -1262.762346710     -1259.014594146        10.249766812
       198          198.000000         3.735435256       291.464233472     -1262.804602898     -1259.020571637        10.194703152
       199          199.000000         3.773310669       294.419532474     -1262.848120441     -1259.027073031        10.229216773
       200          200.000000         3.685575702       287.573849643     -1262.682943367     -1258.950520003        10.182893103
       201          201.000000         3.775949906       294.625463817     -1262.788678957     -1258.966817166        10.297666343
       202          202.000000         3.833533583       299.118536518     -1262.855639492     -1258.977183439        10.224222146
       203          203.000000         3.824081356       298.381009083     -1262.809880354     -1258.941897373        10.232564868
       204          204.000000         3.862001566       301.339803457     -1262.868206525     -1258.963352717        10.191160034
       205          205.000000         3.778788763       294.846970861     -1262.750461658     -1258.929885242        10.186181044
       206          206.000000         3.822018215       298.220028687     -1262.746702840     -1258.883988164        10.730333433
       207          207.000000         3.897444119       304.105274128     -1262.842570441     -1258.905564738        10.772659555
       208          208.000000         3.824887907       298.443941727     -1262.733796049     -1258.870497959        10.783239409
       209          209.000000         3.867405771       301.761476561     -1262.797243354     -1258.892598600        10.225697774
       210          210.000000         3.881295876       302.845277681     -1262.817088296     -1258.899752797        10.193322336
       211          211.000000         3.895514231       303.954691061     -1262.821877843     -1258.891543864        10.236902095
       212          212.000000         3.961007575       309.064930118     -1262.890744589     -1258.896161738        10.221012020
       213          213.000000         3.839245347       299.564207444     -1262.787036967     -1258.915456410        10.749621296
       214          214.000000         3.815393353       297.703111640     -1262.765792891     -1258.919302789        10.738942513
       215          215.000000         3.877987469       302.587133061     -1262.848777780     -1258.940965173        10.791602049
       216          216.000000         3.835107380       299.241334948     -1262.756270804     -1258.892632265        10.181644518
       217          217.000000         3.869471201       301.922635529     -1262.832630696     -1258.935944102        10.254372427
       218          218.000000         3.807496452       297.086941311     -1262.785347837     -1258.951967499        10.191407835
       219          219.000000         3.771529995       294.280592063     -1262.752815690     -1258.956745804        10.191307819
       220          220.000000         3.884810195       303.119488871     -1262.913587098     -1259.005628834        10.193478893
       221          221.000000         3.820298924       298.085877802     -1262.835711182     -1258.993684396        10.202361068
       222          222.000000         3.789955233       295.718255288     -1262.809444405     -1258.999190853        10.163538322
       223          223.000000         3.810404040       297.313811280     -1262.849011870     -1259.019769576        10.192560654
       224          224.000000         3.772538656       294.359294740     -1262.779109150     -1258.989219768        10.218851354
       225          225.000000         3.863695158       301.471949105     -1262.903542124     -1259.024028231        10.219293287
       226          226.000000         3.819886489       298.053696814     -1262.846922392     -1259.012780835        10.201903502
       227          227.000000         3.752647123       292.807221110     -1262.756242273     -1258.990908682        10.262107057