#     Step Nr.          Time[fs]        Kin.[a.u.]          Temp[K]            Pot.[a.u.]        Cons Qty[a.u.]        UsedTime[s]
         0            0.000000         3.843405441       300.000000000     -1250.995113020     -1247.151232557         0.000000000
         1            1.000000         3.559590730       277.846622035     -1250.636765768     -1247.075883576        47.604634695
         2            2.000000         3.535645012       275.977520387     -1250.655960498     -1247.118288078        12.852754394
         3            3.000000         3.506770487       273.723696872     -1250.604684710     -1247.095212782        12.192673100
         4            4.000000         3.564106948       278.199138931     -1250.656208085     -1247.088782995        12.198833898
         5            5.000000         3.708635210       289.480404844     -1250.824112904     -1247.111576020        12.205811622
         6            6.000000         3.536718029       276.061275609     -1250.572163602     -1247.030994882        12.176119216
         7            7.000000         3.682753185       287.460163215     -1250.732433077     -1247.044732627        12.241222467
         8            8.000000         3.882674011       303.065138759     -1250.949061679     -1247.060950019        12.203346238
         9            9.000000         3.738436611       291.806576312     -1250.726560731     -1246.982192932        12.224550776
        10           10.000000         3.717989603       290.210569249     -1250.749627419     -1247.025240921        12.232224362
        11           11.000000         3.588696626       280.118505372     -1250.576014116     -1246.980490300        12.216641536
        12           12.000000         3.690335406       288.051999386     -1250.657950296     -1246.960401861        12.252588026
        13           13.000000         3.998552753       312.110144071     -1251.031143983     -1247.024995689        12.267083678
        14           14.000000         3.856469311       301.019710482     -1250.803838091     -1246.939362046        12.239037430
        15           15.000000         3.863650611       301.580252467     -1250.824680942     -1246.952612680        12.213245587
        16           16.000000         3.956588354       308.834580253     -1250.945825014     -1246.980396045        12.208223490
        17           17.000000         3.895202946       304.043094495     -1250.825099485     -1246.920611724        12.214232545
        18           18.000000         3.967452533       309.682592195     -1250.963550870     -1246.986354143        12.189657237
        19           19.000000         3.744725223       292.297438805     -1250.713293421     -1246.958355469        12.200835563
        20           20.000000         3.704537536       289.160557658     -1250.651134157     -1246.935945447        12.211641310
        21           21.000000         4.021320832       313.887324182     -1251.051426312     -1247.019017945        12.202321047
        22           22.000000         3.975841274       310.337381881     -1250.958368031     -1246.970959412        12.201841468
        23           23.000000         3.941743509       307.675854335     -1250.989695794     -1247.035881611        12.214617340
        24           24.000000         3.855931963       300.977767423     -1250.895639166     -1247.027121433        12.841930959
        25           25.000000         3.740334631       291.954727771     -1250.752972107     -1246.999547325        12.857032806
        26           26.000000         3.959688408       309.076557399     -1251.062980410     -1247.089702034        12.241985958
        27           27.000000         3.834373465       299.295002031     -1250.887452591     -1247.038967585        12.212908715
        28           28.000000         3.701666576       288.936462628     -1250.725293088     -1247.009011615        12.182791026
        29           29.000000         3.895859493       304.094341813     -1251.043701533     -1247.132738819        12.906804172
        30           30.000000         3.897629594       304.232508373     -1251.009269070     -1247.096028565        12.896288883
        31           31.000000         3.988151336       311.298253311     -1251.134917987     -1247.130627544        12.902291896
        32           32.000000         3.862302272       301.475006782     -1251.047359100     -1247.168366880        12.844132002
        33           33.000000         3.617694838       282.381983369     -1250.720276063     -1247.085364298        12.912035735
        34           34.000000         3.863515714       301.569722986     -1251.039981120     -1247.158752609        12.855669953
        35           35.000000         3.907386652       304.994103156     -1251.032654494     -1247.107039682        12.884477025
        36           36.000000         3.845637364       300.174214453     -1250.935613404     -1247.071222278        12.850988248
        37           37.000000         3.908168314       305.055116374     -1251.056282064     -1247.128829448        12.241036374
        38           38.000000         3.790595739       295.877897620     -1250.875583111     -1247.065166547        12.188443553
        39           39.000000         3.967072175       309.652903026     -1251.077031353     -1247.089599536        12.238565905
        40           40.000000         3.961858532       309.245948056     -1251.068173429     -1247.085382307        12.193824086
        41           41.000000         3.677692699       287.065163080     -1250.650168623     -1246.950973141        12.197729966
        42           42.000000         3.819375381       298.124314957     -1250.852945359     -1247.011528176        12.182728710
        43           43.000000         3.888193225       303.495945290     -1250.898481234     -1246.987697061        12.188292483
        44           44.000000         3.964485153       309.450971049     -1250.967316927     -1246.979670335        12.187900500
        45           45.000000         4.025427074       314.207840080     -1251.077249896     -1247.028054383        12.183526918
        46           46.000000         3.767032349       294.038638913     -1250.772642457     -1246.981219187        12.188957820
        47           47.000000         3.892420631       303.825918762     -1250.964047566     -1247.046627833        12.202757677
        48           48.000000         3.989123785       311.374158596     -1251.065130927     -1247.050370857        12.180987986
        49           49.000000         3.794970589       296.219379911     -1250.790524375     -1246.969264130        12.196938334
        50           50.000000         3.859943367       301.290880660     -1250.943291882     -1247.056417354        12.180062221
        51           51.000000         3.815868236       297.850562006     -1250.873331221     -1247.029885846        12.210681107
        52           52.000000         3.924550136       306.333812212     -1250.998991362     -1247.046212139        12.206178760
        53           53.000000         4.090760201       319.307468103     -1251.222322441     -1247.102637115        12.187888248
        54           54.000000         3.793812195       296.128960622     -1250.840657801     -1247.017194862        12.236127453
        55           55.000000         3.789790301       295.815028536     -1250.877471276     -1247.057332178        12.223772628
        56           56.000000         3.885528547       303.287951752     -1251.003617920     -1247.087039763        12.222537277
        57           57.000000         3.828729819       298.854482851     -1250.902891293     -1247.042400300        12.206283400
        58           58.000000         3.930591932       306.805409320     -1251.083134936     -1247.120062368        12.231571471
        59           59.000000         3.738553784       291.815722326     -1250.848546162     -1247.076787922        12.861681659
        60           60.000000         3.756205582       293.193547202     -1250.847791487     -1247.057686755        12.172964588
        61           61.000000         3.992631240       311.647935769     -1251.138640474     -1247.111401083        12.840804927
        62           62.000000         3.794729448       296.200557485     -1250.855631443     -1247.025559413        12.218914084
        63           63.000000         3.756644210       293.227784653     -1250.835111438     -1247.042415192        12.198421400
        64           64.000000         3.744607799       292.288273187     -1250.826359033     -1247.045007959        12.186705315
        65           65.000000         3.713071278       289.826665509     -1250.735006545     -1246.984521633        12.227236085
        66           66.000000         3.961965225       309.254276061     -1251.061359256     -1247.061306729        12.181688664
        67           67.000000         3.796835908       296.364978834     -1250.828181354     -1246.992560820        12.190468330
        68           68.000000         3.701175109       288.898100841     -1250.704902173     -1246.964272978        12.226169137
        69           69.000000         3.898081068       304.267748511     -1250.966081123     -1247.027885565        12.182744035
        70           70.000000         3.820001320       298.173173111     -1250.816746319     -1246.955952729        12.237345623
        71           71.000000         3.887565709       303.446964055     -1250.931905280     -1247.002868446        12.184001477
        72           72.000000         3.806794114       297.142274382     -1250.835351305     -1246.986400190        12.222094025
        73           73.000000         3.690977629       288.102128552     -1250.643844583     -1246.910046473        12.160676107
        74           74.000000         3.976991660       310.427176164     -1251.019530297     -1246.999056945        12.215156520
        75           75.000000         3.890919620       303.708756144     -1250.889567075     -1246.954466316        12.206950245
        76           76.000000         3.763320531       293.748910027     -1250.725655440     -1246.917461538        12.172752125
        77           77.000000         3.828953007       298.871904020     -1250.868818378     -1246.994313114        12.223170344
        78           78.000000         3.734392565       291.490915157     -1250.702210969     -1246.921593272        12.830516616
        79           79.000000         3.918356268       305.850345038     -1250.956735874     -1246.991485076        12.213367775
        80           80.000000         3.869322557       302.022980613     -1250.898026139     -1246.981115106        12.188000131
        81           81.000000         3.641300311       284.224526913     -1250.618238344     -1246.928676021        12.178099159
        82           82.000000         3.851554729       300.636098948     -1250.917759245     -1247.017296054        12.181493159
        83           83.000000         3.839540450       299.698315075     -1250.876220841     -1246.987108691        12.212003089
        84           84.000000         3.815058941       297.787391836     -1250.851678982     -1246.986385773        12.182314817
        85           85.000000         3.836785711       299.483291831     -1250.926666022     -1247.038984595        12.191757182
        86           86.000000         3.624332452       282.900087515     -1250.652585958     -1246.976716100        12.198524840
        87           87.000000         3.838512785       299.618099918     -1250.939547791     -1247.048884679        12.184140900
        88           88.000000         3.919125653       305.910399980     -1251.042190349     -1247.070277808        12.196209177
        89           89.000000         3.716515927       290.095540308     -1250.830269052     -1247.060328024        12.236136125
        90           90.000000         3.808953266       297.310808650     -1251.003477949     -1247.140484579        12.188633127
        91           91.000000         3.734870303       291.528205365     -1250.891428483     -1247.101908693        12.182674212
        92           92.000000         3.811173083       297.484078228     -1250.980251444     -1247.113833318        12.172284164
        93           93.000000         3.916701758       305.721200974     -1251.121911023     -1247.149356257        12.201527352
        94           94.000000         3.652683893       285.113081221     -1250.786505908     -1247.077364360        12.217766590
        95           95.000000         3.773048885       294.508264315     -1250.980002101     -1247.149926392        12.168891536
        96           96.000000         3.874121556       302.397570208     -1251.097380981     -1247.165657095        12.824080842
        97           97.000000         3.778775335       294.955246786     -1250.930376913     -1247.093418271        12.825661007
        98           98.000000         3.876619821       302.592574190     -1251.097665796     -1247.162285681        12.839004949
        99           99.000000         3.711785548       289.726306914     -1250.820103185     -1247.048981389        12.865918856
       100          100.000000         3.797545314       296.420352118     -1250.915485888     -1247.058050141        12.850664318
       101          101.000000         4.013900680       313.308138394     -1251.162407682     -1247.088041902        12.838494070
       102          102.000000         3.799725622       296.590537766     -1250.865197366     -1247.004404118        12.830034884
       103          103.000000         3.846914839       300.273928767     -1250.926844983     -1247.018270636        12.150111033
       104          104.000000         3.859246622       301.236495700     -1250.955192520     -1247.033685651        12.826849123
       105          105.000000         3.816780934       297.921803379     -1250.870487881     -1246.990842007        12.157986283
       106          106.000000         3.998953677       312.141438460     -1251.131436147     -1247.068996726        12.160442268
       107          107.000000         3.786021989       295.520890046     -1250.846286552     -1246.996134275        12.223397980
       108          108.000000         3.776938645       294.811882501     -1250.837269023     -1246.995575179        12.151584191
       109          109.000000         3.985684448       311.105698513     -1251.104326003     -1247.053247703        12.178609170
       110          110.000000         3.843286322       299.990702020     -1250.887559315     -1246.978209867        12.164675996
       111          111.000000         3.893843061       303.936947632     -1250.988792129     -1247.028214109        12.181487130
       112          112.000000         3.802967977       296.843622295     -1250.886742609     -1247.016359213        12.812519262
       113          113.000000         3.713198128       289.836566920     -1250.740758469     -1246.959482665        12.204981886
       114          114.000000         3.967332411       309.673215972     -1251.095123774     -1247.059048652        12.809847280
       115          115.000000         3.812532051       297.590153541     -1250.883389097     -1247.001420172        12.806004735
       116          116.000000         3.743689128       292.216565634     -1250.760166919     -1246.946364641        12.213630730
       117          117.000000         3.852461003       300.706838926     -1250.925093533     -1247.001848881        12.796626665
       118          118.000000         3.727848081       290.980080360     -1250.748586742     -1246.949283818        12.844867406
       119          119.000000         3.864672522       301.660018515     -1250.960618897     -1247.023829577        12.802220108
       120          120.000000         3.764975784       293.878112137     -1250.849315319     -1247.011553012        12.123276258
       121          121.000000         3.608004736       281.625614888     -1250.640216776     -1246.958788580        12.155490635
       122          122.000000         3.853473318       300.785855949     -1250.982187048     -1247.054675912        12.163865985
       123          123.000000         3.779730924       295.029836009     -1250.840777118     -1246.986379632        12.142494809
       124          124.000000         3.756154768       293.189580823     -1250.788860781     -1246.957423928        12.143785980
       125          125.000000         3.792591559       296.033682893     -1250.859804931     -1246.991324337        12.137844699
       126          126.000000         3.628487135       283.224384489     -1250.605597759     -1246.900633482        12.123477928
       127          127.000000         3.843968749       300.043969385     -1250.892253355     -1246.971242176        12.146551795
       128          128.000000         3.826288069       298.663890163     -1250.867155870     -1246.963244733        12.144731499
       129          129.000000         3.660829754       285.748912771     -1250.604035958     -1246.865017269        12.136650601
       130          130.000000         3.851057675       300.597301046     -1250.882106538     -1246.952313408        12.146888586
       131          131.000000         3.791744686       295.967579543     -1250.747881835     -1246.876844267        12.146519605
       132          132.000000         3.861090036       301.380384752     -1250.841220050     -1246.900279946        12.799998684
       133          133.000000         3.903575532       304.696623199     -1250.913038472     -1246.929038317        12.804259250
       134          134.000000         3.654427354       285.249168453     -1250.587601989     -1246.852179677        12.832763985
       135          135.000000         3.846778016       300.263248902     -1250.845276810     -1246.916957670        12.807548057
       136          136.000000         3.894808844       304.012332576     -1250.871499211     -1246.894581905        12.143026847
       137          137.000000         3.773219375       294.521572009     -1250.671144125     -1246.815241676        12.165779339
       138          138.000000         3.890449269       303.672042532     -1250.793938202     -1246.820232748        12.151535492
       139          139.000000         3.753001213       292.943427625     -1250.629088640     -1246.792249690        12.808296483
       140          140.000000         3.861311826       301.397696811     -1250.759163967     -1246.813439822        12.819134237
       141          141.000000         3.978302445       310.529490484     -1250.937547456     -1246.874229773        12.809899770
       142          142.000000         3.730471015       291.184815513     -1250.602027621     -1246.785923152        12.159105500
       143          143.000000         3.857286721       301.083514041     -1250.790868588     -1246.847345166        12.198565304
       144          144.000000         3.890912661       303.708212962     -1250.800612965     -1246.822839159        12.151714902
       145          145.000000         3.856453863       301.018504659     -1250.767163111     -1246.823207656        12.220271261
       146          146.000000         4.000792211       312.284946667     -1250.993371351     -1246.904411984        12.807086559
       147          147.000000         3.777760577       294.876039093     -1250.696408417     -1246.829790468        12.189547503
       148          148.000000         3.830659222       299.005083912     -1250.775506317     -1246.855311489        12.185884155
       149          149.000000         3.979179908       310.597981551     -1250.950283851     -1246.880862666        12.185886549
       150          150.000000         3.778285653       294.917024315     -1250.668874696     -1246.799618590        12.170066580
       151          151.000000         3.869433257       302.031621360     -1250.859028491     -1246.897901426        12.165029690
       152          152.000000         3.814599530       297.751532158     -1250.781272818     -1246.874240866        12.226326942
       153          153.000000         3.779895017       295.042644411     -1250.713259601     -1246.840196910        12.182563182
       154          154.000000         3.966640960       309.619244245     -1250.986688997     -1246.926126742        12.166377641
       155          155.000000         3.718318298       290.236225794     -1250.698470665     -1246.885458855        12.173264218
       156          156.000000         3.710586911       289.632746377     -1250.752958289     -1246.946938767        12.815623287
       157          157.000000         3.847533700       300.322234445     -1250.927129265     -1246.983422589        12.161036501
       158          158.000000         3.730526619       291.189155783     -1250.765733129     -1246.938285574        12.933790606
       159          159.000000         3.872477059       302.269207695     -1250.972495763     -1247.002352033        12.821335530
       160          160.000000         3.759331382       293.437533961     -1250.835054050     -1246.977296625        12.842812756
       161          161.000000         3.688263427       287.890269420     -1250.723374673     -1246.935948079        12.859481145
       162          162.000000         3.939761424       307.521141127     -1251.012296006     -1246.972627694        12.153267512
       163          163.000000         3.785119192       295.450421502     -1250.779065477     -1246.893265359        12.835434886
       164          164.000000         3.775563636       294.704555133     -1250.742674547     -1246.865668319        12.833970103
       165          165.000000         3.831729026       299.088588287     -1250.828725138     -1246.894786877        12.826130249
       166          166.000000         3.721765350       290.505288062     -1250.654174261     -1246.829432698        12.172231462
       167          167.000000         3.935915709       307.220960875     -1250.994242707     -1246.954576932        12.817323901
       168          168.000000         3.824327350       298.510844730     -1250.867390696     -1246.938505944        12.820110062
       169          169.000000         3.681698899       287.377870094     -1250.714810426     -1246.927764863        12.182188088
       170          170.000000         3.884712615       303.224263533     -1250.997887586     -1247.007043148        12.864078538
       171          171.000000         3.786527354       295.560336632     -1250.825263511     -1246.931794439        12.191241823
       172          172.000000         3.842058021       299.894826073     -1250.899895414     -1246.950084345        12.192129726
       173          173.000000         3.849904409       300.507281934     -1250.929151963     -1246.970664224        12.168547273
       174          174.000000         3.673521158       286.739550142     -1250.701225499     -1246.918298471        12.179347897
       175          175.000000         3.913852154       305.498772934     -1251.016823099     -1246.992744936        12.168432763
       176          176.000000         3.864530414       301.648926143     -1250.937894627     -1246.962276219        12.180482654
       177          177.000000         3.732136764       291.314836904     -1250.768177162     -1246.924093987        12.170022190
       178          178.000000         3.868449333       301.954820411     -1250.959923846     -1246.978669937        12.171777122
       179          179.000000         3.754284446       293.043591422     -1250.743029195     -1246.875065991        12.202100454
       180          180.000000         3.893113755       303.880021038     -1250.924049828     -1246.916376593        12.154558767
       181          181.000000         3.930331390       306.785072515     -1251.001742848     -1246.955927787        12.209397323
       182          182.000000         3.685727562       287.692330532     -1250.634448171     -1246.832311337        12.178356607
       183          183.000000         3.854204550       300.842932784     -1250.875570215     -1246.904044952        12.196939439
       184          184.000000         3.833756446       299.246840171     -1250.834771812     -1246.882751698        12.205037802
       185          185.000000         3.762717665       293.701852868     -1250.722515336     -1246.840589137        12.176983524
       186          186.000000         3.847773915       300.340984601     -1250.873397273     -1246.905463795        12.152725723
       187          187.000000         3.645946272       284.587170996     -1250.583317431     -1246.816264915        12.186118603
       188          188.000000         3.790828713       295.896082579     -1250.793199947     -1246.880339131        12.174339397
       189          189.000000         3.898961866       304.336499931     -1250.922150885     -1246.900194206        12.200976372
       190          190.000000         3.685128592       287.645577497     -1250.629742456     -1246.820649932        12.176726835
       191          191.000000         3.789077225       295.759368796     -1250.815250657     -1246.901260840        12.171053886
       192          192.000000         3.733611180       291.429923576     -1250.710600017     -1246.851119307        12.189965084
       193          193.000000         3.759370627       293.440597192     -1250.732805951     -1246.846615486        12.173017928
       194          194.000000         3.936828876       307.292238827     -1251.001712918     -1246.937084052        12.169476973
       195          195.000000         3.724130083       290.689869199     -1250.692928412     -1246.839996791        12.175825940
       196          196.000000         3.813463683       297.662872776     -1250.802272866     -1246.859020967        12.166431798
       197          197.000000         3.920870492       306.046594780     -1250.987281371     -1246.935598109        12.180068593
       198          198.000000         3.767313207       294.060561466     -1250.825779094     -1246.926608029        12.150003834
       199          199.000000         3.871239123       302.172579692     -1251.040976702     -1247.036831971        12.820450963
       200          200.000000         3.750013153       292.710192312     -1250.864440629     -1246.980458520        12.169934774
       201          201.000000         3.766803702       294.020791679     -1250.893262465     -1246.991437864        12.867846372
       202          202.000000         3.991780791       311.581553240     -1251.173981555     -1247.046085547        12.182820162
       203          203.000000         3.792001885       295.987655459     -1250.894195637     -1246.964942775        12.168017175
       204          204.000000         3.821917153       298.322714929     -1250.968293963     -1247.008000231        12.177646117
       205          205.000000         3.873347847       302.337177727     -1251.039096510     -1247.026218956        12.173854828
       206          206.000000         3.771037526       294.351266135     -1250.881936401     -1246.970202295        12.816707341
       207          207.000000         3.940837677       307.605148936     -1251.102092901     -1247.019369363        12.174863653
       208          208.000000         3.786140618       295.530149683     -1250.868002657     -1246.938753497        12.201817039
       209          209.000000         3.732922162       291.376141739     -1250.793964264     -1246.916732824        12.171910228
       210          210.000000         3.953617206       308.602664977     -1251.141055084     -1247.041896305        12.197479388
       211          211.000000         3.831731287       299.088764781     -1250.951952087     -1246.973397401        12.162469396
       212          212.000000         3.880237204       302.874931844     -1251.042298612     -1247.013945788        12.220078822
       213          213.000000         3.843644359       300.018648882     -1251.067437757     -1247.074357784        12.165875979
       214          214.000000         3.698497355       288.689086652     -1250.861985520     -1247.012746011        12.844493452
       215          215.000000         3.910902220       305.268513499     -1251.163110517     -1247.100147393        12.222932499
       216          216.000000         3.796978407       296.376101698     -1251.005714759     -1247.055313970        12.160838388
       217          217.000000         3.709676227       289.561662184     -1250.898437339     -1247.034001136        12.220348245
       218          218.000000         3.849115550       300.445706948     -1251.073382886     -1247.068161238        12.198714288
       219          219.000000         3.725275339       290.779263044     -1250.855425242     -1246.972680549        12.173053626
       220          220.000000         3.838001290       299.578174759     -1251.000291791     -1247.003457654        12.186216516
       221          221.000000         3.806752143       297.138998321     -1251.011336379     -1247.044358279        12.178681614
       222          222.000000         3.623306558       282.820010548     -1250.756628063     -1246.971733301        12.169561252
       223          223.000000         3.842761610       299.949745263     -1251.085890871     -1247.080186536        12.194962248
       224          224.000000         3.803840830       296.911753459     -1251.032520309     -1247.064337220        12.204533417
       225          225.000000         3.777001655       294.816800852     -1250.982254266     -1247.039511823        12.178655196
       226          226.000000         3.882464697       303.048800598     -1251.110632890     -1247.061005732        12.214041047
       227          227.000000         3.715170669       289.990535121     -1250.854070626     -1246.970308197        12.157166975