#     Step Nr.          Time[fs]        Kin.[a.u.]          Temp[K]            Pot.[a.u.]        Cons Qty[a.u.]        UsedTime[s]
         0            0.000000         3.850530776       300.000000000     -1567.691629489     -1563.840623691         0.000000000
         1            1.000000         3.612543399       281.458085333     -1567.360705467     -1563.746863706        56.415659057
         2            2.000000         3.578469191       278.803318224     -1567.345201455     -1563.764680329        14.475287842
         3            3.000000         3.617324184       281.830562700     -1567.390767690     -1563.770686699        13.758333325
         4            4.000000         3.544757936       276.176829277     -1567.275206924     -1563.727036323        14.459465548
         5            5.000000         3.730632751       290.658584590     -1567.523538438     -1563.788878758        14.461704822
         6            6.000000         3.613320086       281.518598078     -1567.390313129     -1563.772375658        15.134031752
         7            7.000000         3.626298425       282.529757786     -1567.423268847     -1563.791812536        15.152607081
         8            8.000000         3.884353306       302.635158510     -1567.815393130     -1563.925358952        15.832299236
         9            9.000000         3.724476980       290.178980247     -1567.540614809     -1563.809930391        15.185633678
        10           10.000000         3.694087908       287.811327030     -1567.538371660     -1563.837583898        14.516585587
        11           11.000000         3.655202783       284.781734978     -1567.463370299     -1563.801009673        13.777701017
        12           12.000000         3.610426029       281.293118192     -1567.370772944     -1563.752773041        14.427243413
        13           13.000000         3.913921572       304.938861671     -1567.746345020     -1563.824457128        14.520162221
        14           14.000000         3.835401534       298.821260509     -1567.685259276     -1563.841483655        15.812323108
        15           15.000000         3.743036361       291.624966475     -1567.558079544     -1563.806273285        15.862251734
        16           16.000000         3.897013507       303.621531751     -1567.804049183     -1563.897881705        15.811895616
        17           17.000000         3.799809982       296.048275165     -1567.644559403     -1563.835205119        15.116409574
        18           18.000000         3.857697116       300.558339114     -1567.742854208     -1563.875230305        15.143582437
        19           19.000000         3.761128552       293.034553258     -1567.669294336     -1563.897860401        15.129043592
        20           20.000000         3.610004272       281.260258548     -1567.451376070     -1563.830717994        14.453611804
        21           21.000000         3.928285192       306.057950484     -1567.847907340     -1563.908647526        14.494452115
        22           22.000000         3.968478231       309.189443896     -1567.820065962     -1563.840267568        14.483693248
        23           23.000000         3.913686552       304.920550912     -1567.747076320     -1563.821702539        15.111735968
        24           24.000000         3.938779810       306.875600224     -1567.816109643     -1563.865261393        14.483187873
        25           25.000000         3.769763165       293.707287463     -1567.550080383     -1563.767861155        14.429282030
        26           26.000000         3.937893555       306.806550905     -1567.749235019     -1563.798504893        13.735839466
        27           27.000000         3.939837342       306.957993919     -1567.757127093     -1563.804049961        13.760500563
        28           28.000000         3.743075897       291.628046712     -1567.489697076     -1563.732974530        13.775917573
        29           29.000000         3.939565590       306.936821403     -1567.782614826     -1563.829006611        13.751242720
        30           30.000000         3.969235673       309.248457216     -1567.776085105     -1563.792384310        13.725934491
        31           31.000000         4.003376800       311.908438075     -1567.810406534     -1563.792113081        13.766680347
        32           32.000000         4.005651933       312.085696743     -1567.844465205     -1563.823411067        13.772785462
        33           33.000000         3.720960983       289.905044217     -1567.482271055     -1563.745414457        13.788252244
        34           34.000000         3.867008984       301.283839249     -1567.683427128     -1563.800051791        13.721096018
        35           35.000000         3.981008764       310.165714434     -1567.809383673     -1563.811517864        14.441508852
        36           36.000000         3.853030243       300.194736806     -1567.555822448     -1563.685423824        13.752180943
        37           37.000000         3.932366070       306.375897193     -1567.693022371     -1563.742772617        13.784896389
        38           38.000000         3.818332603       297.491397298     -1567.560819398     -1563.724077180        13.729391102
        39           39.000000         3.886137381       302.774158223     -1567.639243043     -1563.734173703        13.767921260
        40           40.000000         3.993259922       311.120218545     -1567.838596616     -1563.825860685        13.726250648
        41           41.000000         3.709742641       289.031008177     -1567.449870421     -1563.720099649        13.766019858
        42           42.000000         3.761605760       293.071733130     -1567.539196596     -1563.757044845        14.390317325
        43           43.000000         3.871111470       301.603469388     -1567.709812065     -1563.817640183        14.407173837
        44           44.000000         3.886763224       302.822918469     -1567.694428815     -1563.786078911        15.115915451
        45           45.000000         4.026414066       313.703302212     -1567.885811565     -1563.837261580        14.398161165
        46           46.000000         3.815211569       297.248233356     -1567.592252938     -1563.754332702        13.734314259
        47           47.000000         3.796625143       295.800140108     -1567.576474014     -1563.756584516        13.733073924
        48           48.000000         3.970147291       309.319482621     -1567.813671891     -1563.819697336        13.705828076
        49           49.000000         3.816686257       297.363128258     -1567.583498159     -1563.742402485        13.734971458
        50           50.000000         3.862282308       300.915577574     -1567.668896724     -1563.781630628        13.725126984
        51           51.000000         3.864391007       301.079869118     -1567.736935933     -1563.846979859        14.430841004
        52           52.000000         3.869681652       301.492070373     -1567.709257034     -1563.813423480        15.121153906
        53           53.000000         4.089081275       318.585788270     -1568.013016989     -1563.897167979        15.746014923
        54           54.000000         3.887459771       302.877187371     -1567.752479351     -1563.837594101        14.420839440
        55           55.000000         3.785382843       294.924237432     -1567.645122439     -1563.831668915        15.092719117
        56           56.000000         3.896046346       303.546178908     -1567.782455098     -1563.857697314        13.756027894
        57           57.000000         3.803671292       296.349115001     -1567.601874473     -1563.768842875        13.744893860
        58           58.000000         3.909001124       304.555503007     -1567.759239294     -1563.820229691        13.768521825
        59           59.000000         3.836732834       298.924983898     -1567.704335350     -1563.836933126        14.437514259
        60           60.000000         3.751133806       292.255849197     -1567.644872183     -1563.862421843        15.066559469
        61           61.000000         3.988131484       310.720655132     -1567.965924231     -1563.945825227        15.093962638
        62           62.000000         3.871768295       301.654643532     -1567.773013256     -1563.868594470        15.115201594
        63           63.000000         3.767345317       293.518909730     -1567.663446866     -1563.862779756        15.079552835
        64           64.000000         3.788705725       295.183127667     -1567.713487726     -1563.890806537        14.431795087
        65           65.000000         3.699859371       288.260989398     -1567.577429668     -1563.842958753        15.808317725
        66           66.000000         3.913828702       304.931626059     -1567.854771111     -1563.905703650        15.085050175
        67           67.000000         3.887788832       302.902824964     -1567.770354397     -1563.846674334        13.741919454
        68           68.000000         3.739537452       291.352361765     -1567.570352052     -1563.794278056        14.414344005
        69           69.000000         3.912831416       304.853926190     -1567.815697710     -1563.865693347        15.150981952
        70           70.000000         3.857777122       300.564572544     -1567.718110345     -1563.822504075        15.803354887
        71           71.000000         3.857713711       300.559632081     -1567.724864745     -1563.828664259        15.114055440
        72           72.000000         3.861064037       300.820660448     -1567.734976441     -1563.834762889        14.430427710
        73           73.000000         3.701532266       288.391326918     -1567.506912333     -1563.765579791        14.418645538
        74           74.000000         3.926715612       305.935662429     -1567.800317686     -1563.833162121        13.737210350
        75           75.000000         3.967675899       309.126933167     -1567.769027868     -1563.760235571        13.765061896
        76           76.000000         3.811333716       296.946104675     -1567.563888218     -1563.710749350        13.802759817
        77           77.000000         3.881370996       302.402802758     -1567.704497370     -1563.780638547        13.729319302
        78           78.000000         3.783782965       294.799588848     -1567.558575892     -1563.731619180        13.761308195
        79           79.000000         3.872867129       301.740255148     -1567.647928584     -1563.731207408        14.446202336
        80           80.000000         3.940452466       307.005919111     -1567.780103449     -1563.795094787        15.150824632
        81           81.000000         3.722006250       289.986482419     -1567.456552601     -1563.689286859        15.115183480
        82           82.000000         3.859927568       300.732116656     -1567.634750784     -1563.728880416        15.122305200
        83           83.000000         3.927293927       305.980719722     -1567.689708960     -1563.715766150        14.471935095
        84           84.000000         3.870682331       301.570034586     -1567.596751814     -1563.678696965        15.110696990
        85           85.000000         3.918937926       305.329692494     -1567.715756569     -1563.748712132        15.105633890
        86           86.000000         3.717793752       289.658281069     -1567.451596264     -1563.684964641        14.437233770
        87           87.000000         3.801117454       296.150142020     -1567.558103692     -1563.707442946        14.461344099
        88           88.000000         3.957764877       308.354752145     -1567.772663693     -1563.764631117        14.466649989
        89           89.000000         3.801073008       296.146679163     -1567.549325188     -1563.697241865        14.464233113
        90           90.000000         3.867122374       301.292673554     -1567.653007207     -1563.734140158        13.767004512
        91           91.000000         3.842286785       299.357699636     -1567.616254582     -1563.721479016        14.435279695
        92           92.000000         3.836868487       298.935552841     -1567.596264702     -1563.706162570        13.766084423
        93           93.000000         3.976871406       309.843367408     -1567.755937730     -1563.725068773        13.761183297
        94           94.000000         3.757383556       292.742775591     -1567.467397248     -1563.655238686        13.783906840
        95           95.000000         3.755896532       292.626919541     -1567.483545781     -1563.672126735        13.100600727
        96           96.000000         3.905235348       304.262106332     -1567.676924084     -1563.715413935        13.065527255
        97           97.000000         3.831564337       298.522299382     -1567.587555278     -1563.698945805        13.813465944
        98           98.000000         3.922958596       305.642948315     -1567.713520231     -1563.732738624        13.790191561
        99           99.000000         3.813603262       297.122928048     -1567.592871904     -1563.720654606        13.796503492
       100          100.000000         3.747536863       291.975606545     -1567.503690833     -1563.696767488        13.795070363
       101          101.000000         3.925162540       305.814660516     -1567.740986198     -1563.755662199        13.801119758
       102          102.000000         3.768677198       293.622678311     -1567.504594619     -1563.674966649        13.104539020
       103          103.000000         3.742063490       291.549168754     -1567.483827810     -1563.680050150        13.096092135
       104          104.000000         3.816332559       297.335571173     -1567.585298335     -1563.706496572        13.118862053
       105          105.000000         3.767467573       293.528434810     -1567.486217538     -1563.655527270        13.092175854
       106          106.000000         3.938378917       306.844366116     -1567.620115514     -1563.617753612        13.106639117
       107          107.000000         3.833309085       298.658235026     -1567.432423081     -1563.534347605        13.103862774
       108          108.000000         3.707851643       288.883678031     -1567.269359296     -1563.495978973        13.106557345
       109          109.000000         3.880852014       302.362368218     -1567.473547610     -1563.526414712        12.537053403
       110          110.000000         3.814174437       297.167429041     -1567.366972444     -1563.485748233        13.084745256
       111          111.000000         3.834495958       298.750705870     -1567.405281954     -1563.502970888        13.139964888
       112          112.000000         3.825049492       298.014719075     -1567.401542586     -1563.507909280        13.102599362
       113          113.000000         3.706570338       288.783849874     -1567.252738369     -1563.476829767        13.128719589
       114          114.000000         3.912053641       304.793328640     -1567.516833495     -1563.534692699        13.137920838
       115          115.000000         3.873102664       301.758605976     -1567.408029857     -1563.464062072        13.128370583
       116          116.000000         3.746978679       291.932117703     -1567.252448675     -1563.433834573        13.088105677
       117          117.000000         3.827657248       298.217892831     -1567.298648238     -1563.398598645        12.464836720
       118          118.000000         3.736292444       291.099538844     -1567.184174083     -1563.374735586        13.076174997
       119          119.000000         3.842830442       299.400056677     -1567.326419755     -1563.409699135        13.187020769
       120          120.000000         3.856341165       300.452695175     -1567.343863133     -1563.412873021        12.405687232
       121          121.000000         3.657407200       284.953484024     -1567.078590587     -1563.345791264        12.398502523
       122          122.000000         3.805623941       296.501248471     -1567.290461322     -1563.408729685        12.433246579
       123          123.000000         3.817147700       297.399079941     -1567.286849967     -1563.392869208        12.411434032
       124          124.000000         3.772908823       293.952369899     -1567.249293309     -1563.398830426        12.450068446
       125          125.000000         3.850604498       300.005743797     -1567.377714172     -1563.448837023        13.139348529
       126          126.000000         3.709041031       288.976344814     -1567.114899880     -1563.326872175        12.420121437
       127          127.000000         3.827721479       298.222897178     -1567.268042520     -1563.360637120        13.115342403
       128          128.000000         3.925309398       305.826102434     -1567.392662021     -1563.386949519        13.135697067
       129          129.000000         3.776817483       294.256898796     -1567.237833849     -1563.379882944        13.161157198
       130          130.000000         3.863354508       300.999114121     -1567.440997645     -1563.495786805        13.116648495
       131          131.000000         3.806775265       296.590949618     -1567.393234969     -1563.503871293        13.173806105
       132          132.000000         3.796230591       295.769399970     -1567.372158726     -1563.492614129        13.095958946
       133          133.000000         3.906821343       304.385673322     -1567.537051788     -1563.546181513        13.147703392
       134          134.000000         3.743207115       291.638270120     -1567.269433090     -1563.441435149        12.426201679
       135          135.000000         3.821282875       297.721256915     -1567.431737192     -1563.524937315        13.146524828
       136          136.000000         3.914559501       304.988563556     -1567.564813309     -1563.563991682        13.108024269
       137          137.000000         3.811611043       296.967711568     -1567.339605334     -1563.440971979        12.472023934
       138          138.000000         3.891945707       303.226692680     -1567.457718577     -1563.477987418        13.107609743
       139          139.000000         3.788472538       295.164959736     -1567.358354930     -1563.481323978        13.110799123
       140          140.000000         3.772637951       293.931265857     -1567.333427966     -1563.471472147        13.117817124
       141          141.000000         3.907848656       304.465712622     -1567.538548932     -1563.540614020        13.135246111
       142          142.000000         3.755808905       292.620092421     -1567.327747295     -1563.481072394        13.110488785
       143          143.000000         3.803998117       296.374578304     -1567.401592647     -1563.505964170        13.093889676
       144          144.000000         3.867843168       301.348831642     -1567.482913575     -1563.522664180        13.107643224
       145          145.000000         3.808547146       296.728999278     -1567.380630532     -1563.478891278        13.771508086
       146          146.000000         3.922094913       305.575657559     -1567.551955423     -1563.535871555        13.161829457
       147          147.000000         3.789685372       295.259453285     -1567.391327070     -1563.506840096        13.092851147
       148          148.000000         3.751359502       292.273433477     -1567.328831599     -1563.481875741        13.178608974
       149          149.000000         3.908592102       304.523635514     -1567.516090078     -1563.511099331        13.084774584
       150          150.000000         3.793162844       295.530387715     -1567.346350416     -1563.455967469        13.091926072
       151          151.000000         3.819041469       297.546626026     -1567.451982002     -1563.534906175        13.132591086
       152          152.000000         3.816535451       297.351378777     -1567.415658760     -1563.500268840        13.136522459
       153          153.000000         3.744666997       291.752011467     -1567.298774495     -1563.454438934        13.093474278
       154          154.000000         3.922160826       305.580792986     -1567.592378969     -1563.569728401        13.126364028
       155          155.000000         3.831157481       298.490600722     -1567.526899615     -1563.594403523        13.099223088
       156          156.000000         3.750753878       292.226248473     -1567.428681101     -1563.575751118        13.155133020
       157          157.000000         3.870700574       301.571455920     -1567.597054007     -1563.623339196        13.116108680
       158          158.000000         3.826491204       298.127044845     -1567.507529412     -1563.577166313        13.135950234
       159          159.000000         3.929981119       306.190082450     -1567.588078692     -1563.553350842        13.148664223
       160          160.000000         3.894138876       303.397565409     -1567.556239707     -1563.556447062        13.127892537
       161          161.000000         3.747302686       291.957361503     -1567.320711612     -1563.466851233        13.090901395
       162          162.000000         3.894464958       303.422970852     -1567.509085891     -1563.507160053        13.076166717
       163          163.000000         3.857235595       300.522381431     -1567.459596713     -1563.493967196        13.094117559
       164          164.000000         3.812055070       297.002306356     -1567.437837806     -1563.516451653        13.124666214
       165          165.000000         3.849464107       299.916894403     -1567.535542620     -1563.575803695        13.807189044
       166          166.000000         3.735723006       291.055173200     -1567.368630940     -1563.521689566        13.117285132
       167          167.000000         3.879852932       302.284528399     -1567.540967103     -1563.548951443        13.807203742
       168          168.000000         3.908876613       304.545802144     -1567.612062856     -1563.590040879        13.755975269
       169          169.000000         3.743760171       291.681359431     -1567.421431122     -1563.563539504        13.819027387
       170          170.000000         3.813326112       297.101334905     -1567.654784841     -1563.726354719        15.834317811
       171          171.000000         3.758603466       292.837820377     -1567.565600838     -1563.690915227        15.823714877
       172          172.000000         3.792779507       295.500521414     -1567.603608149     -1563.693772785        15.898444850
       173          173.000000         3.873532355       301.792083783     -1567.720347343     -1563.728766554        15.887030713
       174          174.000000         3.715521413       289.481240035     -1567.488607102     -1563.654041666        15.851874212
       175          175.000000         3.810260822       296.862514074     -1567.622193827     -1563.691907492        15.137579301
       176          176.000000         3.866957721       301.279845260     -1567.688625865     -1563.700635619        14.500972761
       177          177.000000         3.786524534       295.013188164     -1567.568883125     -1563.660307460        15.901564904
       178          178.000000         3.867405643       301.314743452     -1567.700039139     -1563.709557259        15.856296480
       179          179.000000         3.773153937       293.971467028     -1567.568621847     -1563.671354136        15.863572927
       180          180.000000         3.807413337       296.640662730     -1567.567923794     -1563.635364001        14.473081544
       181          181.000000         3.921991801       305.567624022     -1567.746223785     -1563.698023408        15.190188972
       182          182.000000         3.780105053       294.513037805     -1567.549154676     -1563.641758963        14.479322718
       183          183.000000         3.822567250       297.821324328     -1567.607221635     -1563.656288849        13.770555152
       184          184.000000         3.818459104       297.501253203     -1567.732085293     -1563.784170828        15.843880277
       185          185.000000         3.741438715       291.500491729     -1567.623337015     -1563.751356547        15.851054041
       186          186.000000         3.839718645       299.157612399     -1567.774799854     -1563.803450819        15.849511011
       187          187.000000         3.736818546       291.140528172     -1567.653915053     -1563.784368855        15.822645010
       188          188.000000         3.761445474       293.059245039     -1567.646711260     -1563.751454945        15.872573499
       189          189.000000         3.887691089       302.895209685     -1567.751231046     -1563.728622669        14.471132072
       190          190.000000         3.781915599       294.654099848     -1567.607174746     -1563.689214134        14.469210021
       191          191.000000         3.828678816       298.297484584     -1567.691577300     -1563.725727297        14.489237005
       192          192.000000         3.797564844       295.873353465     -1567.638568724     -1563.702693479        14.425812019
       193          193.000000         3.732456104       290.800644450     -1567.548611051     -1563.676713980        14.481417019
       194          194.000000         3.865459067       301.163083115     -1567.734786250     -1563.728746785        14.479340456
       195          195.000000         3.786042314       294.975617731     -1567.615615092     -1563.687830038        13.795036359
       196          196.000000         3.802654115       296.269865344     -1567.632705202     -1563.687148604        13.835879857
       197          197.000000         3.915371056       305.051792926     -1567.767458494     -1563.707994951        13.770570787
       198          198.000000         3.839795192       299.163576329     -1567.622406788     -1563.637297255        13.787968339
       199          199.000000         3.915176710       305.036651114     -1567.693873244     -1563.632140389        13.096885515
       200          200.000000         3.872932535       301.745351009     -1567.655849355     -1563.635084974        13.773989312
       201          201.000000         3.795793586       295.735352336     -1567.545644272     -1563.600740500        13.812052634
       202          202.000000         3.929983320       306.190253905     -1567.776518358     -1563.696123664        13.786459455
       203          203.000000         3.850851610       300.024996600     -1567.668302038     -1563.665698873        14.460479209
       204          204.000000         3.849180733       299.894816329     -1567.668078606     -1563.665798710        13.761509657
       205          205.000000         3.922782230       305.629207381     -1567.771754675     -1563.694491791        13.758869000
       206          206.000000         3.835875331       298.858174683     -1567.672450313     -1563.680685043        13.809780031
       207          207.000000         3.914998569       305.022771944     -1567.833250348     -1563.760932658        14.404867264
       208          208.000000         3.856312570       300.450467324     -1567.706887294     -1563.691793087        13.818682997
       209          209.000000         3.760937315       293.019653708     -1567.572459467     -1563.651286850        14.531868828
       210          210.000000         3.895953907       303.538976865     -1567.705203299     -1563.647544909        13.047091544
       211          211.000000         3.857412642       300.536175352     -1567.634326950     -1563.613697310        13.777580973
       212          212.000000         3.869283922       301.461082661     -1567.649746463     -1563.615715402        13.784220725
       213          213.000000         3.897316062       303.645104211     -1567.721308626     -1563.657682916        13.762665233
       214          214.000000         3.771538185       293.845581684     -1567.547203632     -1563.607787533        13.740631992
       215          215.000000         3.861370850       300.844564665     -1567.673643283     -1563.642823984        13.060373105
       216          216.000000         3.841892236       299.326959795     -1567.651873634     -1563.638928729        13.108686751
       217          217.000000         3.752923617       292.395295757     -1567.480617472     -1563.555043559        13.067760397
       218          218.000000         3.858415828       300.614334981     -1567.658986124     -1563.626314116        13.112138635
       219          219.000000         3.823517774       297.895380937     -1567.590151430     -1563.590739569        13.743258992
       220          220.000000         3.881750720       302.432387579     -1567.660682556     -1563.601378919        13.756527357
       221          221.000000         3.911209101       304.727529402     -1567.715375100     -1563.624910817        13.733754275
       222          222.000000         3.730218576       290.626315683     -1567.483446832     -1563.572278739        13.745301444
       223          223.000000         3.770636014       293.775292270     -1567.561506345     -1563.608257833        13.748992484
       224          224.000000         3.768439588       293.604165835     -1567.555471094     -1563.602746841        13.086848909
       225          225.000000         3.730710808       290.664666132     -1567.496197921     -1563.579539142        13.058717417
       226          226.000000         3.817290297       297.410189869     -1567.600903512     -1563.595995084        13.082809212
       227          227.000000         3.724440190       290.176113900     -1567.468944090     -1563.555211926        13.798680095