#     Step Nr.          Time[fs]        Kin.[a.u.]          Temp[K]            Pot.[a.u.]        Cons Qty[a.u.]        UsedTime[s]
         0            0.000000         3.844830508       300.000000000     -1262.742584742     -1258.897279212         0.000000000
         1            1.000000         3.737977076       291.662563677     -1262.621514043     -1258.882221695        42.305356000
         2            2.000000         3.645466507       284.444255663     -1262.519175538     -1258.871595669        10.854140146
         3            3.000000         3.691601335       288.044010788     -1262.574177680     -1258.879704730        10.909702718
         4            4.000000         3.753067218       292.839999814     -1262.613119394     -1258.856440418        10.302915778
         5            5.000000         3.825547985       298.495445543     -1262.700806992     -1258.870911502        10.903693320
         6            6.000000         3.790109025       295.730255196     -1262.637689539     -1258.842500031        10.334353687
         7            7.000000         3.801217406       296.597007156     -1262.630970058     -1258.823951087        10.894922771
         8            8.000000         3.931633025       306.772926633     -1262.786208755     -1258.848045258        10.878564455
         9            9.000000         3.906222929       304.790256992     -1262.755038374     -1258.841532319        10.314343808
        10           10.000000         3.810477224       297.319521557     -1262.645736516     -1258.827224413        10.930747746
        11           11.000000         3.758129354       293.234982352     -1262.586192026     -1258.819295943        10.321448546
        12           12.000000         3.793756889       296.014886566     -1262.605829174     -1258.802590023        10.318497401
        13           13.000000         3.942943092       307.655415478     -1262.774609269     -1258.821458026        10.333761372
        14           14.000000         3.932499832       306.840560845     -1262.747251150     -1258.803788030        10.861952627
        15           15.000000         3.846976948       300.167479941     -1262.646496476     -1258.787794208        10.907812566
        16           16.000000         3.893033785       303.761149664     -1262.718398594     -1258.812877251        10.297640176
        17           17.000000         3.904435362       304.650778749     -1262.728432193     -1258.810732166        10.882983914
        18           18.000000         3.870695858       302.018191668     -1262.703330176     -1258.818583539        10.887511963
        19           19.000000         3.776047445       294.633074447     -1262.608733938     -1258.817858582        10.270189807
        20           20.000000         3.706828602       289.232146412     -1262.529368718     -1258.806964108        10.869740266
        21           21.000000         3.853208224       300.653686773     -1262.710940018     -1258.841421554        10.312249394
        22           22.000000         3.932551374       306.844582540     -1262.797253864     -1258.847635624        10.274828410
        23           23.000000         3.853528399       300.678668984     -1262.708710086     -1258.837344053        10.902209725
        24           24.000000         3.792231572       295.895870838     -1262.679656507     -1258.868827796        10.830833877
        25           25.000000         3.769089262       294.090149417     -1262.651125648     -1258.862697104        10.822978469
        26           26.000000         3.845267443       300.034092662     -1262.743416742     -1258.878074788        10.304127701
        27           27.000000         3.833614601       299.124858128     -1262.739130602     -1258.884701655        10.847489621
        28           28.000000         3.716532717       289.989327936     -1262.598036822     -1258.859966591        10.857852837
        29           29.000000         3.766406867       293.880850596     -1262.662185224     -1258.873544622        10.850245869
        30           30.000000         3.862539855       301.381804440     -1262.755408439     -1258.869938939        10.293194538
        31           31.000000         3.883321116       303.003300721     -1262.770727315     -1258.863767757        10.303260680
        32           32.000000         3.800892563       296.571660649     -1262.686485712     -1258.861245888        10.256693641
        33           33.000000         3.667423092       286.157458752     -1262.522435144     -1258.829985008        10.305109873
        34           34.000000         3.745358751       292.238532451     -1262.611596702     -1258.840564886        10.276685242
        35           35.000000         3.865572256       301.618413199     -1262.743234202     -1258.851343607        10.858361572
        36           36.000000         3.827584123       298.654318904     -1262.680657549     -1258.826102012        10.835388051
        37           37.000000         3.798445870       296.380752918     -1262.653000779     -1258.826938674        10.861706331
        38           38.000000         3.804478678       296.851473967     -1262.643837039     -1258.811106911        10.832697975
        39           39.000000         3.882482773       302.937887475     -1262.725065605     -1258.813694723        10.260459216
        40           40.000000         3.901597269       304.429331358     -1262.758736107     -1258.827599159        10.830310347
        41           41.000000         3.736313763       291.532780561     -1262.555988836     -1258.789488589        10.314302310
        42           42.000000         3.694640787       288.281169637     -1262.511333301     -1258.785893967        10.853102164
        43           43.000000         3.802818332       296.721922397     -1262.645704975     -1258.811495519        10.825025827
        44           44.000000         3.874306190       302.299894482     -1262.719275922     -1258.812980273        10.827328414
        45           45.000000         3.868280157       301.829702179     -1262.719860527     -1258.818982651        10.260844478
        46           46.000000         3.750227333       292.618412530     -1262.586900477     -1258.803474155        11.072750371
        47           47.000000         3.731124607       291.127887094     -1262.574056019     -1258.809157114        10.848919218
        48           48.000000         3.806459312       297.006016591     -1262.658997833     -1258.818203729        10.855494376
        49           49.000000         3.739352211       291.769861065     -1262.575815778     -1258.801577732        10.865870567
        50           50.000000         3.658481688       285.459789230     -1262.519382678     -1258.825494604        10.255329149
        51           51.000000         3.660073628       285.584003293     -1262.525685307     -1258.829723032        10.856270930
        52           52.000000         3.762409654       293.568960669     -1262.631039201     -1258.832284251        10.854353886
        53           53.000000         3.879230048       302.684087611     -1262.777084196     -1258.861053789        10.268446596
        54           54.000000         3.782545948       295.140132197     -1262.664308778     -1258.844503744        10.873339813
        55           55.000000         3.690157469       287.931350540     -1262.561758330     -1258.833905396        10.837200375
        56           56.000000         3.750267016       292.621508912     -1262.641982312     -1258.853610784        10.821882056
        57           57.000000         3.805850933       296.958546628     -1262.690015236     -1258.845662145        10.844854804
        58           58.000000         3.828971573       298.762577314     -1262.723582904     -1258.855714985        10.834424280
        59           59.000000         3.761376661       293.488359446     -1262.654222793     -1258.853562299        10.867185581
        60           60.000000         3.755251342       293.010420118     -1262.629965077     -1258.835060059        10.855171356
        61           61.000000         3.898791938       304.210440176     -1262.804952622     -1258.866143565        10.847939210
        62           62.000000         3.908554242       304.972161972     -1262.812420490     -1258.863469815        10.867854074
        63           63.000000         3.806365223       296.998675123     -1262.698256419     -1258.851108908        10.901266189
        64           64.000000         3.750160539       292.613200820     -1262.642935705     -1258.851620252        10.842113947
        65           65.000000         3.778877359       294.853883760     -1262.663197381     -1258.842809239        10.880660444
        66           66.000000         3.898093165       304.155917176     -1262.810996808     -1258.871039790        10.863200961
        67           67.000000         3.879433702       302.699978059     -1262.789540797     -1258.867877107        10.287275845
        68           68.000000         3.771563669       294.283219595     -1262.662470446     -1258.848310723        10.842934608
        69           69.000000         3.794383975       296.063816088     -1262.689368195     -1258.852036171        10.861736203
        70           70.000000         3.829125447       298.774583584     -1262.747762126     -1258.875342431        10.847140539
        71           71.000000         3.822778419       298.279344998     -1262.744092388     -1258.877675118        10.835620521
        72           72.000000         3.741324548       291.923756307     -1262.669319542     -1258.884020386        10.829215560
        73           73.000000         3.671578477       286.481690307     -1262.567327896     -1258.851464176        10.836349249
        74           74.000000         3.784515954       295.293845529     -1262.689245763     -1258.860160253        10.861656521
        75           75.000000         3.848717245       300.303269834     -1262.760726610     -1258.867160694        10.823906789
        76           76.000000         3.786076221       295.415588245     -1262.697047112     -1258.865844240        10.834378125
        77           77.000000         3.739802320       291.804981660     -1262.647096929     -1258.861903865        10.849878233
        78           78.000000         3.715587118       289.915545847     -1262.593045418     -1258.831824651        10.837796314
        79           79.000000         3.773417880       294.427897837     -1262.657494693     -1258.838221334        10.842949377
        80           80.000000         3.774305368       294.497145734     -1262.635846030     -1258.815475981        10.805866232
        81           81.000000         3.676072083       286.832312271     -1262.523061471     -1258.800733234        10.844081858
        82           82.000000         3.723745158       290.552091980     -1262.582446524     -1258.812283252        10.826587748
        83           83.000000         3.823483547       298.334363890     -1262.687825287     -1258.817780153        10.268683398
        84           84.000000         3.855176768       300.807285984     -1262.709068504     -1258.807189350        10.816929627
        85           85.000000         3.822106223       298.226895718     -1262.683490266     -1258.814539674        10.826034097
        86           86.000000         3.739555302       291.785707601     -1262.574912247     -1258.788377626        10.836344559
        87           87.000000         3.800361553       296.530227648     -1262.648351927     -1258.800892968        10.862632586
        88           88.000000         3.876623352       302.480695318     -1262.738559158     -1258.814725968        10.261369748
        89           89.000000         3.817499218       297.867425599     -1262.637540265     -1258.772714870        10.838990899
        90           90.000000         3.784878946       295.322168629     -1262.612277757     -1258.779961730        10.799060717
        91           91.000000         3.797512606       296.307933291     -1262.637973147     -1258.792922909        10.845149364
        92           92.000000         3.862743917       301.397726774     -1262.701510970     -1258.791135334        10.800805187
        93           93.000000         3.887052115       303.294418821     -1262.740241180     -1258.805458942        10.846397450
        94           94.000000         3.786541032       295.451855949     -1262.592540646     -1258.758166068        10.791736344
        95           95.000000         3.782662673       295.149239848     -1262.593076061     -1258.762486249        10.801011004
        96           96.000000         3.867192981       301.744873229     -1262.692875258     -1258.777670103        10.784946674
        97           97.000000         3.894768697       303.896519375     -1262.717684982     -1258.774814112        10.783812713
        98           98.000000         3.876014907       302.433220315     -1262.733805334     -1258.809588547        10.772164043
        99           99.000000         3.802500313       296.697108363     -1262.633972665     -1258.783166316        10.786763418
       100          100.000000         3.834450399       299.190072779     -1262.677109093     -1258.794254086        10.799076861
       101          101.000000         3.929120104       306.576851371     -1262.797805291     -1258.820180075        10.218796890
       102          102.000000         3.870715841       302.019750900     -1262.712941594     -1258.793605639        10.792708874
       103          103.000000         3.810963422       297.357458087     -1262.654466121     -1258.794763206        10.770945622
       104          104.000000         3.817376880       297.857879998     -1262.669289491     -1258.803058672        10.807808448
       105          105.000000         3.864700666       301.550405776     -1262.710178805     -1258.796512448        10.776476379
       106          106.000000         3.917424159       305.664253637     -1262.793329648     -1258.826821417        10.844237091
       107          107.000000         3.820944193       298.136226176     -1262.676585888     -1258.806427985        10.799408719
       108          108.000000         3.752614928       292.804709103     -1262.600773518     -1258.798820828        10.238469500
       109          109.000000         3.810475932       297.319420754     -1262.680063747     -1258.820140175        10.248073053
       110          110.000000         3.818600532       297.953357649     -1262.698740648     -1258.830588666        10.252019078
       111          111.000000         3.790448366       295.756732965     -1262.683922810     -1258.843824566        10.839845384
       112          112.000000         3.723022996       290.495743909     -1262.612838240     -1258.840078826        10.832826771
       113          113.000000         3.725345455       290.676958117     -1262.594580253     -1258.819433781        10.272587236
       114          114.000000         3.843650744       299.907946727     -1262.737582096     -1258.844084847        10.816912111
       115          115.000000         3.828829807       298.751515720     -1262.717107709     -1258.838388345        10.824503690
       116          116.000000         3.748128322       292.454633329     -1262.623541123     -1258.825485043        10.810972724
       117          117.000000         3.743185923       292.068993506     -1262.634777104     -1258.841642352        10.859302094
       118          118.000000         3.789044829       295.647219325     -1262.681258277     -1258.842262002        10.809690166
       119          119.000000         3.870266121       301.984660615     -1262.769880228     -1258.849670256        10.836937869
       120          120.000000         3.827585482       298.654424950     -1262.707498776     -1258.829975156        10.821531080
       121          121.000000         3.759828339       293.367548757     -1262.627477104     -1258.817720335        10.808659587
       122          122.000000         3.840479748       299.660523927     -1262.718569159     -1258.828184082        10.805948712
       123          123.000000         3.901392582       304.413360271     -1262.771446010     -1258.820173275        10.838154534
       124          124.000000         3.893715862       303.814369964     -1262.761582770     -1258.818002643        10.808610568
       125          125.000000         3.839088296       299.551953265     -1262.710366784     -1258.821421473        10.283693166
       126          126.000000         3.803268532       296.757050041     -1262.662359447     -1258.809241811        10.285019619
       127          127.000000         3.905899723       304.765038257     -1262.783982786     -1258.828246945        10.249033635
       128          128.000000         3.936515373       307.153880847     -1262.823703917     -1258.837355125        10.266875435
       129          129.000000         3.846947778       300.165203855     -1262.707865518     -1258.811071448        10.261620531
       130          130.000000         3.821809191       298.203719180     -1262.691850715     -1258.820180293        10.233639313
       131          131.000000         3.834031171       299.157361761     -1262.705255134     -1258.821351292        10.262447227
       132          132.000000         3.881381522       302.851960360     -1262.768715890     -1258.837451306        10.262625750
       133          133.000000         3.847398719       300.200389394     -1262.737054846     -1258.839757176        10.219727371
       134          134.000000         3.734037957       291.355206582     -1262.600176372     -1258.816225054        10.269423572
       135          135.000000         3.778711300       294.840926650     -1262.671612244     -1258.842991071        10.233165132
       136          136.000000         3.849387057       300.355533138     -1262.742187500     -1258.842906732        10.802965680
       137          137.000000         3.838647960       299.517595256     -1262.720414275     -1258.831890262        10.799394339
       138          138.000000         3.803165799       296.749034133     -1262.670425708     -1258.817403523        10.808563361
       139          139.000000         3.750061089       292.605441061     -1262.606649125     -1258.806760045        10.802554129
       140          140.000000         3.811005736       297.360759714     -1262.686643402     -1258.825854556        10.768618699
       141          141.000000         3.867796699       301.791979453     -1262.760518285     -1258.842991687        10.810531631
       142          142.000000         3.791712325       295.855355676     -1262.650353309     -1258.808963728        10.793616682
       143          143.000000         3.764149404       293.704707836     -1262.638330309     -1258.824565734        10.779758547
       144          144.000000         3.800867228       296.569683859     -1262.661569286     -1258.811164521        10.790145490
       145          145.000000         3.863539052       301.459768662     -1262.727153042     -1258.814164616        10.792941956
       146          146.000000         3.883899105       303.048399393     -1262.751454228     -1258.818193656        10.800200852
       147          147.000000         3.793071608       295.961416214     -1262.649937265     -1258.807587711        10.237825831
       148          148.000000         3.806003451       296.970447199     -1262.653734970     -1258.798545420        10.778941790
       149          149.000000         3.900964072       304.379924976     -1262.757299338     -1258.807249750        10.783182817
       150          150.000000         3.915108575       305.483575904     -1262.747452491     -1258.783352795        10.811031727
       151          151.000000         3.888789443       303.429977087     -1262.759939102     -1258.822241138        10.771255359
       152          152.000000         3.828949639       298.760865823     -1262.686254439     -1258.808471381        10.776721556
       153          153.000000         3.868602312       301.854838914     -1262.733015097     -1258.815656340        10.824525945
       154          154.000000         3.958073636       308.836004136     -1262.844892442     -1258.838135903        10.774178535
       155          155.000000         3.887417707       303.322944850     -1262.759603533     -1258.823558897        10.804365285
       156          156.000000         3.820578245       298.107672349     -1262.690344883     -1258.821186978        10.781619070
       157          157.000000         3.837807034       299.451980439     -1262.702334615     -1258.815998540        10.211622834
       158          158.000000         3.884831314       303.121136726     -1262.745579302     -1258.812271652        10.210880192
       159          159.000000         3.940804580       307.488554193     -1262.826449854     -1258.837214934        10.220282312
       160          160.000000         3.859005669       301.106043073     -1262.743328767     -1258.835923416        10.977913164
       161          161.000000         3.794463927       296.070054516     -1262.660924316     -1258.818088043        10.787755376
       162          162.000000         3.864323522       301.520978394     -1262.737933564     -1258.825272370        10.787795810
       163          163.000000         3.876037329       302.434969836     -1262.741564589     -1258.817222853        10.772060502
       164          164.000000         3.840199974       299.638694013     -1262.706568764     -1258.818093096        10.771165503
       165          165.000000         3.787106897       295.496008643     -1262.638342877     -1258.802990578        10.820094774
       166          166.000000         3.794888170       296.103156832     -1262.634583809     -1258.791490960        10.794282569
       167          167.000000         3.909040596       305.010110677     -1262.765959417     -1258.808763810        10.777085945
       168          168.000000         3.901899137       304.452885116     -1262.748689967     -1258.798677181        10.800167331
       169          169.000000         3.817609177       297.876005334     -1262.648473612     -1258.782782884        10.774467584
       170          170.000000         3.804747385       296.872440268     -1262.643547775     -1258.790754837        10.768779902
       171          171.000000         3.839271034       299.566211734     -1262.673357309     -1258.786084460        10.804572498
       172          172.000000         3.907972794       304.926793420     -1262.755879452     -1258.799950377        10.780076381
       173          173.000000         3.879943205       302.739732960     -1262.726085922     -1258.798222759        10.214510992
       174          174.000000         3.816458770       297.786242737     -1262.651324716     -1258.786976419        10.794945188
       175          175.000000         3.872235131       302.138296323     -1262.733428131     -1258.813337247        10.759259606
       176          176.000000         3.897807446       304.133623398     -1262.756651012     -1258.811017860        10.777626863
       177          177.000000         3.869203949       301.901782715     -1262.709057896     -1258.792049501        10.781222586
       178          178.000000         3.815417030       297.704959063     -1262.631002002     -1258.767797704        10.761696786
       179          179.000000         3.769611319       294.130883827     -1262.573316205     -1258.755940575        10.780706134
       180          180.000000         3.858369015       301.056366947     -1262.685989823     -1258.779891840        10.773019820
       181          181.000000         3.900075295       304.310576523     -1262.735798543     -1258.788029439        10.228259869
       182          182.000000         3.825905253       298.523322048     -1262.651377004     -1258.777805446        10.767549682
       183          183.000000         3.807736184       297.105646890     -1262.649249847     -1258.793877488        10.788852507
       184          184.000000         3.811247600       297.379631554     -1262.648206160     -1258.789360001        10.783845130
       185          185.000000         3.839805112       299.607884162     -1262.681733002     -1258.794374061        10.783782016
       186          186.000000         3.841116773       299.710228982     -1262.684793480     -1258.796170457        10.778197939
       187          187.000000         3.767121364       293.936600534     -1262.602645048     -1258.788068178        10.801269099
       188          188.000000         3.804197616       296.829543580     -1262.639460578     -1258.787871780        10.766154658
       189          189.000000         3.891609450       303.650013317     -1262.748544068     -1258.809617187        10.771029588
       190          190.000000         3.909657807       305.058269678     -1262.757940415     -1258.801033745        10.793944674
       191          191.000000         3.897268062       304.091536952     -1262.746479831     -1258.802020486        10.792103259
       192          192.000000         3.859303954       301.129317319     -1262.704955477     -1258.798508629        10.758193782
       193          193.000000         3.898336468       304.174901293     -1262.741567978     -1258.796133117        10.214465231
       194          194.000000         3.944901920       307.808256658     -1262.794259180     -1258.802293592        10.193949128
       195          195.000000         3.898747225       304.206951350     -1262.728240849     -1258.782447224        10.785578929
       196          196.000000         3.896572161       304.037238006     -1262.728904322     -1258.785291081        10.797541887
       197          197.000000         3.930878026       306.714016445     -1262.771892833     -1258.793967589        10.753519237
       198          198.000000         3.973754311       310.059517738     -1262.814366309     -1258.793540354        10.769037293
       199          199.000000         3.983972779       310.856832580     -1262.831784388     -1258.800688787        10.763565382
       200          200.000000         3.896837005       304.057902950     -1262.725469565     -1258.781431767        10.270210402
       201          201.000000         3.876779473       302.492876961     -1262.711184399     -1258.787113234        10.257511532
       202          202.000000         3.924477530       306.214605915     -1262.778128699     -1258.806258083        10.767259851
       203          203.000000         3.910424462       305.118089365     -1262.754011030     -1258.796074808        10.765961861
       204          204.000000         3.884123328       303.065894852     -1262.729284522     -1258.797515867        10.192471685
       205          205.000000         3.838073657       299.472784194     -1262.683150545     -1258.797289099        10.754015470
       206          206.000000         3.835437949       299.267128200     -1262.673735197     -1258.790365328        10.783599224
       207          207.000000         3.878259150       302.608331488     -1262.735441533     -1258.809103465        10.201527650
       208          208.000000         3.816619447       297.798779875     -1262.664026828     -1258.799174845        10.212174576
       209          209.000000         3.762480348       293.574476667     -1262.607828971     -1258.796967227        10.193290794
       210          210.000000         3.782666819       295.149563367     -1262.634354903     -1258.803170128        10.233895088
       211          211.000000         3.809496568       297.243004041     -1262.639974201     -1258.781831872        10.230291218
       212          212.000000         3.845894157       300.082993131     -1262.689364613     -1258.794700248        10.758259442
       213          213.000000         3.803674100       296.788695247     -1262.642670646     -1258.790101404        10.752784999
       214          214.000000         3.764508753       293.732746765     -1262.596865754     -1258.783344031        10.240491308
       215          215.000000         3.820199093       298.078088342     -1262.668404932     -1258.799086266        10.240388216
       216          216.000000         3.841872469       299.769193505     -1262.691276952     -1258.800181056        10.793872431
       217          217.000000         3.836944771       299.384700806     -1262.691337352     -1258.805064457        10.777915662
       218          218.000000         3.824373918       298.403836780     -1262.679676122     -1258.805869523        10.202498727
       219          219.000000         3.827215756       298.625576434     -1262.665675617     -1258.788924621        10.266879702
       220          220.000000         3.885810977       303.197576744     -1262.733083305     -1258.797634045        10.774503762
       221          221.000000         3.869276366       301.907433176     -1262.720781122     -1258.801754658        10.239770480
       222          222.000000         3.813533540       297.557996267     -1262.647470454     -1258.784070183        10.233755616
       223          223.000000         3.819055950       297.988892489     -1262.657982510     -1258.788946710        10.782860341
       224          224.000000         3.834237681       299.173475072     -1262.682418025     -1258.798090089        10.780292531
       225          225.000000         3.866252942       301.671524932     -1262.714581851     -1258.798127433        10.839912010
       226          226.000000         3.849942598       300.398880261     -1262.693955740     -1258.793695274        10.820073910
       227          227.000000         3.805012591       296.893133500     -1262.637153857     -1258.781705726        10.773013379