    2699
 i =     5945, time =     5945.000, E =     -1263.4316325417
  C        10.1228675146       14.1104454422       10.7855295649
  O        10.2904980596       15.4265676133       10.7830943096
  O         8.7349984542       13.6272693954       10.4475701640
  N        10.9334683679       13.0845073809       10.9030937708
  H         8.5525403102       14.2559853901        9.6866362526
  H        11.8620672262       13.4760797148       11.2182339813
  H        10.8250317753       11.0685751482       10.3504036816
  N        10.3921976001       10.1388370103       10.0508811178
  H        10.7769067599        9.5766640918        9.2762868894
  H         9.4607035629       10.6415005755        9.3832520392
  H        10.0905829479        9.4129821954       10.7071396024
  O        26.0958454098       15.9528162682        1.9781881080
  H        26.1050869964       16.6839620234        1.3233203543
  H        26.4946904310       16.3789782248        2.7570389523
  O        -1.7353670712       17.4614432627       -1.2934011560
  H        -2.2736751955       17.8518028419       -2.0139153583
  H        -2.2505872074       16.6102670045       -1.1450431005
  O         1.4403043949        7.0051407797      -12.5794636118
  H         1.5742356055        7.5536414489      -13.3827316914
  H         0.4776769731        7.2390427020      -12.3646694605
  O        27.7949743507       21.5638110080       -9.8855304407
  H        27.2331370506       22.0906866639      -10.5030012321
  H        27.7212892152       22.1198528851       -9.0706949685
  O        23.2903525065        7.7381653888        9.6236104725
  H        22.9213826547        8.5221476323        9.1937006885
  H        23.7405887300        7.2650939719        8.9283285127
  O        17.1024526044       -2.7334926205        6.4955360583
  H        17.7883627928       -2.0413517618        6.6824126453
  H        16.8824323641       -2.4259302279        5.5591408818
  O        -3.5841899778       23.3805010868       -3.9465131739
  H        -3.1205242949       23.7713534968       -3.1816701031
  H        -4.3772365409       23.9531094962       -3.9836955529
  O        -0.3848616349        6.1468871402        2.6802935798
  H        -0.5347140878        6.1134277014        1.7188790517
  H        -1.0575378922        6.8489839213        2.9424386319
  O        26.3952080719        3.1805081414       -5.8097151348
  H        26.9372420460        2.3839289143       -5.6519420667
  H        26.9646698557        3.7984806577       -5.2736536336
  O        20.5048337859       24.0747802079       -3.1142815845
  H        19.7735485309       24.7138206834       -3.3569274074
  H        20.5215510725       24.1522342639       -2.1736949586
  O         0.2759831638       10.0205164725        3.2417141063
  H        -0.3676765067       10.4011013646        2.5821492493
  H         0.8301256217        9.4971501764        2.5947293788
  O        11.2285674187       18.5474524529      -13.1683609742
  H        11.5562760406       18.7666594320      -12.2397973612
  H        10.5723993232       19.2354520717      -13.2795100908
  O        23.4961420434        2.7892330527       -6.0000759739
  H        23.1354705230        3.5826549670       -5.4800224247
  H        24.4296837613        2.9019865966       -5.8231544693
  O         3.1069017207       -0.5458636166      -12.2063714083
  H         2.8722055665       -0.0994362141      -11.3560052474
  H         2.1842346012       -0.6180690350      -12.5602845131
  O        22.7010149742        4.8512122817       -4.2644132047
  H        23.5025892917        5.3495741711       -4.0158257246
  H        21.9900309346        5.4027439178       -3.9990837085
  O         9.8454335629       -3.2682601670      -12.1141193040
  H        10.4897715757       -3.0383782687      -11.4470375992
  H         9.0831654953       -2.6123658821      -11.9612402731
  O        -3.8683745576       17.8665667859       -3.0896574820
  H        -3.7281749383       18.8349949349       -3.2671535479
  H        -4.8068006528       17.8408148637       -2.9519809552
  O        19.8439695104       -6.1988051891       -6.0030957307
  H        20.3841785970       -5.5807337635       -5.4528161283
  H        19.0586290185       -5.6079820806       -6.1374468825
  O        17.6620005242       31.2967735683       -5.3832342249
  H        17.5738203667       31.0533730116       -6.3314159883
  H        17.1422115573       32.2007372979       -5.4622246447
  O        16.7013312008       13.3076280116      -12.0919539680
  H        16.1458272438       13.0822242439      -12.8931540825
  H        17.4583651443       13.7169609075      -12.5149403409
  O         9.8767440404       16.1452653824      -13.9619374728
  H        10.4694465868       16.8801141840      -13.6629360379
  H         9.0247115110       16.6477980829      -14.1175147915
  O        15.0551017135       28.0186505408      -11.2363476849
  H        15.8600559355       27.8848517279      -10.7477493401
  H        14.5357864116       27.2673479733      -10.8432528010
  O        20.4273358952        4.0234641946       -6.5113582826
  H        21.2769271686        4.3110829338       -6.9443557793
  H        19.7526152939        4.4491381839       -7.1046079889
  O        22.8180684038        0.2389168325       -6.6294944282
  H        22.9161592656        1.1121911478       -6.2104650817
  H        22.9386660902        0.4279619767       -7.5643392653
  O        -3.1936209196        5.5145632137       -8.8979155276
  H        -2.8307245209        6.3682373643       -8.5312628815
  H        -3.6231408430        5.8840192382       -9.7250440994
  O        20.5820109278       11.5642301193       -0.8307348009
  H        20.9044756989       12.1285243314       -1.5532189374
  H        21.2306871012       11.7103271284       -0.1460618197
  O        15.3410054952        7.3371430186        1.9369709193
  H        15.8477237928        8.1973935194        1.9515916347
  H        14.4699316457        7.6500158849        1.6990472617
  O        -1.5693182952       23.4832762322        1.0001584504
  H        -2.1293594561       24.1969297657        1.4134109041
  H        -0.7435206091       23.7441014540        1.4756291849
  O        24.8587968601        3.2510969706      -12.1043398996
  H        24.3461420554        2.6825764810      -12.7070326088
  H        24.2169683614        3.7907162667      -11.6683335205
  O        16.0779382460        0.9838937762       -1.8344327201
  H        15.5814123852        1.3915748917       -1.0757200682
  H        16.4415171592        1.8269607147       -2.2574601498
  O        23.5363438549       -2.2987792091        1.5154853464
  H        23.9220420677       -1.5759207997        1.0100457041
  H        23.9354332438       -2.0813181500        2.4038187768
  O         0.6924750724        1.3020638786      -12.6649812910
  H        -0.1862964265        1.0146827622      -12.3477321814
  H         0.8798522877        1.9940561039      -11.9854875672
  O        20.0387479206       -6.7174900427        6.8144711038
  H        20.2813651705       -6.8489017438        7.7844079305
  H        19.0687898161       25.5041447016        6.9770794284
  O         7.4951156839       -6.3418973038        4.0262889306
  H         6.9090098191       -5.5291617005        4.1177811550
  H         8.3627599272       -5.8981220701        3.8952697156
  O         8.3391082065        5.6521933169       -1.7517710218
  H         8.0162419316        5.6927990075       -2.7197149714
  H         9.2931066998        5.8026765685       -1.9597270926
  O        10.7004703313       -3.5296851481       -8.4094809124
  H        11.5300603515       -4.0169740676       -8.3882377706
  H        10.9053898756       -2.9584333614       -9.1895857450
  O        25.0328987240       16.4344103666        6.0700131180
  H        25.5415894854       15.6297434326        5.8066479936
  H        25.8086597698       17.0008834327        6.2512232055
  O        24.2366894026        6.6062724874        0.9992697796
  H        23.9498699261        7.0858852387        0.2291596244
  H        25.1879362040        6.7296562426        0.9544937451
  O        26.4327244243        1.5923313344      -10.3470237207
  H        26.9298774456        2.1501193206       -9.6508627098
  H        25.9836211658        2.3558670106      -10.8071869325
  O         5.5761110272        5.9772533116      -13.6940105033
  H         5.1052290007        6.2593192955      -12.8552803940
  H         6.2975310851        6.6485593147      -13.6212338458
  O         9.8356687238        3.0487683385        3.0045127822
  H        10.3349096475        3.7416307909        3.4987104735
  H         8.9302832460        3.3668872885        3.0890040239
  O         7.9367913298        2.8560070028       -0.9175611342
  H         8.7437951647        2.6800459316       -0.3499965566
  H         8.2407489141        3.6645602853       -1.4335982146
  O         6.0827701107        1.1467392296      -11.1573692262
  H         5.7395520643        1.9836726066      -11.5285250886
  H         5.8005475306        0.5127905623      -11.8538790532
  O        29.6065892147        0.3110943489       -0.5899010441
  H        29.1189583748        1.1044632458       -0.8343474621
  H        30.4758098022        0.5510754383       -1.0156634432
  O        13.3605567531       11.9400484248        0.9606718685
  H        12.8796617607       12.6681422106        0.5866642294
  H        14.2677035803       12.3281619091        0.9889961165
  O         4.9610423560        9.3976808910      -10.1713349426
  H         5.6201155002       10.0702150845      -10.2782920365
  H         4.1286419169        9.8709658531      -10.2813409224
  O        11.2328312786       15.3734832685       -7.0273915940
  H        10.4839494291       15.6383838716       -7.6365864412
  H        11.8640618773       16.0765403331       -7.3218790706
  O        28.6821609652        9.0248741049        8.4057917444
  H        27.7718885706        9.2952767338        8.5311053732
  H        29.1006213338        9.9159674945        8.4101274435
  O        21.0515971205       15.2259950190        9.3146589843
  H        21.5809935212       14.4688594089        9.6642191313
  H        20.2260610666       14.8442703772        8.9752842856
  O        10.8894089395       -1.7513868266       -4.5898298591
  H        11.2470749627       -0.8711426279       -4.8849200279
  H        10.2521200466       -1.9332241747       -5.2806733461
  O        16.7471943442       14.6580209430       -1.6620254530
  H        16.3484654720       13.9905973437       -1.1033266469
  H        15.9754514219       15.0933830872       -2.0270461856
  O         3.7422227175        8.1907046132        9.4423177163
  H         3.1863617494        7.5137280107        8.8800640449
  H         4.6107275180        7.7739008688        9.5858187599
  O         7.4528879691       18.4586450594        3.5473026526
  H         7.2295664149       19.2781604144        3.9485952101
  H         6.9134883205       18.4899908840        2.7435899862
  O         9.0074287312       24.0705244835       -0.4854246656
  H         8.3609925288       24.8423409355       -0.2767897546
  H         9.6008027455       24.1687905865        0.3258431000
  O         8.9688348539       -6.1123810371      -12.5651114585
  H         9.5533871326       -6.5869256762      -13.1221704512
  H         9.4819705118       -5.3480936850      -12.2079242397
  O        13.8655993845       20.5462850120        5.9554438384
  H        13.0791740207       20.0189835727        6.3308382478
  H        14.4307349759       19.8905737845        5.5116110426
  O         5.0586112092       -2.6612092519        2.0347262698
  H         4.4445675832       -1.8813067809        2.2940354739
  H         5.5832098759       -2.1064314804        1.3459457476
  O        11.6296036585       -0.8245300097      -14.1241032834
  H        11.6289035843        0.1635487708      -14.2718063656
  H        12.1044573508       -0.8666118358      -13.2675443811
  O        20.9774481999       19.0700271442      -11.3683234521
  H        21.8700300460       18.6709914802      -11.1801401410
  H        20.4989492734       18.7781184934      -10.6097791011
  O         7.5516625529       -9.2075408924       -2.5473000235
  H         8.0684770406       23.0465079873       -1.7087587518
  H         6.7922218876       -8.6015622072       -2.4778428352
  O         3.1963323768       15.3858344644       -1.2024043820
  H         3.6669834853       16.1929671323       -0.8847500340
  H         3.0220485558       15.6426009775       -2.1490842223
  O        22.9865572228       17.8466267718        4.9931722427
  H        23.1234922741       18.7892060976        5.3097519475
  H        23.8457124169       17.4421085321        5.2326916290
  O         7.0472957507        5.7409148447        0.5703988482
  H         6.1567557995        5.9393442797        0.2471270242
  H         7.5317577927        6.0134691730       -0.2841093608
  O        29.6090794843        4.3819297987       11.1610113914
  H        30.5018837612        4.2281142974       10.7850712992
  H        29.7976459926        5.2728336777       11.5591108619
  O         0.4638706081       -1.1450384774        2.8260343688
  H        -0.2992978004       -0.4910915169        2.6309292813
  H         0.0516347356       -1.9190472372        2.3690995755
  O        17.3223262143       20.2806242028        2.4839745169
  H        17.5623819909       21.1489486098        2.8459587346
  H        16.9683169499       19.8579665679        3.3185623409
  O        24.9495937717       23.7473125320        2.3785324008
  H        25.4121946943       24.1410538761        1.6369376493
  H        24.5655531678       24.5572341850        2.8198416610
  O        18.2577668533        7.4942892456       -4.5776444955
  H        17.5292257957        8.0434840974       -5.0283411144
  H        19.0172626195        7.8963425582       -5.1398945138
  O        10.7835567181       -1.3332820558       10.4105319970
  H        11.0741159645       -0.6860142151       11.0468749114
  H        11.6501883139       -1.8105111405       10.2771874098
  O         5.7737546930       31.4782154052        5.4957650270
  H         5.2811959812       32.0987453061        4.9124164226
  H         5.1355257362       31.3155100655        6.2310630736
  O         0.3874188157       -1.9265076263       -1.7500251487
  H         0.7567376283       -2.0121775042       -2.6636798532
  H        -0.5119496170       -2.2620051456       -1.9587131925
  O         9.2806449904        9.2988331488      -13.0659690269
  H         9.9595532853        9.6103085605      -12.4360007420
  H         9.2146673333       10.0692359357      -13.6677616058
  O         4.1951407663       -5.3129753874       -7.9107874032
  H         3.8273817667       -5.1036792945       -7.0433146706
  H         5.1530178448       -5.1880399547       -7.7963672090
  O        29.9522715608       12.5793497041      -14.8666320825
  H        29.7081846578       13.2987955186      -15.3964478679
  H        29.5914078753       12.8090611094      -14.0054067352
  O        18.8197569937       13.4077368552        8.0994797763
  H        18.7394731839       12.8740396377        7.2852113202
  H        18.3173567949       12.9820649963        8.7919121501
  O        12.1432040554        8.2450142087       -1.9752874154
  H        11.3614177463        8.6631858496       -1.5395371650
  H        12.7540960997        9.0046169090       -1.9333044155
  O         5.2686451689       13.5405779607       -9.5079436408
  H         6.2364983919       13.3841650827       -9.7813801271
  H         5.3855678167       14.1019654872       -8.7513987767
  O        19.2577662429       -0.9941489529       -0.7748702985
  H        19.6524552345       -0.1436236410       -0.5055122365
  H        19.3968690219       -0.8769568259       -1.7754919581
  O        20.5147921021        5.2679719250      -12.3025682934
  H        19.8932241658        5.1003012097      -11.5443173270
  H        19.9854244857        5.8676733251      -12.7956197072
  O         9.3645479129       18.7543918086       -1.0647431978
  H         9.5400254349       19.2700442969       -0.2416750391
  H         8.7876763076       19.3857341431       -1.5637004117
  O        21.7907946356       -3.5074290950      -10.6590379797
  H        21.9924101599       -4.2058162326      -11.3151078116
  H        22.1455075350       -4.0196883011       -9.8690115878
  O        12.7544892631       17.5482766627       -7.8114614923
  H        13.5599282303       18.0490302031       -7.5703092396
  H        12.0735970965       18.2520941648       -7.6236892743
  O        17.7650974172        5.2284815656       12.6626389694
  H        17.1726209938        4.6961616857       12.1811947276
  H        18.5125757487        5.1501011741       12.0637114840
  O         9.5721988404       16.3580769746        7.3299402605
  H         9.7555565706       15.3581066249        7.2180584091
  H        10.0889456429       16.6175057587        6.5285068678
  O         9.8971125736        1.1579476903        4.9713435613
  H         9.4604475544        1.7101642890        4.2999203412
  H         9.1842785718        1.0629157110        5.6343998027
  O        15.5901571295       12.7931416480       10.0169407810
  H        14.6572028089       12.9301726573       10.4746006574
  H        15.4687302304       11.8473954987        9.5756887471
  O        23.2360184401       25.7153794368        9.2300902751
  H        23.1395335077       25.7043317457        8.2226294012
  H        22.3836796463       25.2943046392        9.4826184164
  O         8.9086142181        8.6483142588       -1.8730632901
  H         8.4546386704        7.8400969678       -2.2072645639
  H         9.3942338248        8.9278762845       -2.7047987467
  O         6.5469952383       -0.5609487201        0.6860151807
  H         6.4483850921       -0.6294450334       -0.2872992583
  H         6.3570042048        0.4318356019        0.7969627694
  O         1.3201772015        0.2276689702        5.0208709661
  H         1.4047077697        1.1212226024        4.5922153582
  H         1.0462757311       -0.2437410796        4.1784633290
  O         2.0542564107        1.4911814690        2.1297110108
  H         1.2299224926        1.7186241009        1.6162346604
  H         2.5560509149        2.3461254661        1.9541552891
  O        19.7333241724       17.2339811843       10.7112807618
  H        20.1279569649       16.4818744082       10.1083857105
  H        19.3287513249       16.8558358036       11.4426259288
  O        20.5753955220       22.4454850162      -13.7884509194
  H        21.1881688803       22.1724755988      -13.0237521704
  H        20.7349041399       21.6542549252      -14.3623859239
  O         7.8500352365       -1.5014817253      -12.1741722418
  H         8.2153547384       -0.7655720379      -12.7412375392
  H         6.9355198285       -1.4961894807      -12.5451070469
  O        12.8131848297       34.4647391898       -3.6519184441
  H        13.2058395548        2.8512502958       -4.4529765237
  H        12.8221422692       35.2369501613       -3.0794232016
  O        16.0567196326       23.0652838873       -3.3719461762
  H        16.3483571712       23.7947736895       -2.8270684943
  H        15.2854089330       22.7296151471       -2.8716102235
  O         6.9709147700        1.3552812460        8.5725148800
  H         6.0216966197        1.5797858222        8.2426881225
  H         7.3543724211        1.1638339149        7.6899928792
  O        28.6631852870        3.3898877892        6.4047626030
  H        28.8216912815        2.7823474769        5.6638997701
  H        29.0121337811       36.2009100101        6.0394408727
  O         1.5121326765       12.5326781021        3.1507046633
  H         0.9949124025       11.7922214626        3.3980129368
  H         1.7983778299       12.8622671364        4.0276831106
  O         4.4439073644        6.7881422743       -2.4892102089
  H         4.7410703055        7.1553361949       -3.3665031920
  H         4.9496622662        7.4043480522       -1.8752580765
  O        18.6766038720        5.6808588970        9.4812915767
  H        19.2297088154        4.8967913391        9.2501551585
  H        17.8505683598        5.2775056786        9.1551174711
  O        14.1043111450        6.3079181807       -9.4237682660
  H        15.0457680859        6.3896126992       -9.1573112320
  H        13.7576766738        7.1405808722       -9.0702501042
  O         1.5378986009       14.1260618548      -14.6406840261
  H         2.2566961227       14.6452109523      -14.2195720416
  H         1.2729304022       13.6362666970      -13.8456058369
  O        23.6927220269        4.1555994302       -0.0695060727
  H        23.7332819584        3.8967188760        0.8361995799
  H        23.6580794857        5.1414069692       -0.0056881531
  O        -1.0447610496       -3.1895438571       -5.6847096620
  H        -1.7741252175       -3.5127861040       -6.2748636819
  H        -0.2822665696       -3.1832024448       -6.3291361341
  O        16.0429118884        1.6635357580        9.1877654728
  H        17.0013062576        1.5913962506        9.4660046928
  H        16.1665284675        1.6732448117        8.1763888456
  O         5.4407632633       19.4509321323        1.4035908237
  H         6.0344401299       20.1774890337        1.1512151367
  H         4.7119272072       19.9184991605        1.8659928402
  O         5.1466272879       20.6956613820        9.1539667168
  H         5.4264356273       19.9844314721        9.7701335660
  H         5.7546524424       21.4023032435        9.2438971406
  O        13.2015528601       -3.0005539696       -6.0343215973
  H        12.3122703194       -3.0017645586       -5.6811520935
  H        13.5343040549       -2.1306220152       -5.7860281431
  O        13.4234538319       26.0698778429       -4.7265634343
  H        13.7379631298       -5.7332886973       -3.7477749267
  H        12.4854446966       -5.5775898240       -4.5843095868
  O         0.1049750256       17.6071311622      -14.4469522684
  H         0.4823424162       17.5741796043      -13.5275619250
  H        -0.5009298838       18.3845782385      -14.2934430011
  O       -11.5256504244       -0.4868044998        9.2055256496
  H       -12.1009639817        0.0749482173        8.6426826721
  H       -10.6554965648       -0.1685609076        8.9886265989
  O         8.5522822674        0.3237168198      -13.9449529224
  H         8.8923384687        1.2169706940      -14.1729922477
  H         8.9273954112       -0.1824302140      -14.6864075126
  O        25.5150055354        0.7437655671       -3.8521951490
  H        25.4366699555        1.4298987087       -3.1643535170
  H        26.2963149565        1.0832633564       -4.3084527928
  O        15.2241709232        5.2245338348       -2.8815383105
  H        14.4400026424        5.6853924541       -3.4149239259
  H        15.6437442541        6.0973146612       -2.6440802700
  O         6.3047869974       11.4493507753        7.4313218279
  H         5.4550191238       11.1152377635        7.9063652399
  H         6.6102646878       10.6539939067        7.0794918220
  O        20.2879389774       -8.7389417236        2.9072407855
  H        19.3737970162       23.1193480881        3.2154863521
  H        20.3599608295       -7.8158636052        2.7876246447
  O        -0.0648537750        3.5817716705       -4.0325805605
  H         0.6126555402        4.1530601385       -3.5432516514
  H        -0.3206033335        4.2102936753       -4.7710785942
  O        22.3355515647       26.8635020098       -8.7415692468
  H        22.3979306996       26.7227908531       -7.7715411639
  H        21.6289770912       26.2071919619       -8.9503943943
  O        -5.7480648955       -1.2767151741        0.1323864770
  H        -4.7620112593       -1.4054870636        0.2625634090
  H        -5.7587256147       -1.0687613841       -0.8188708975
  O         7.4419800463        4.1511998714        2.7051636592
  H         7.4438638639        4.7685514320        1.9265429372
  H         6.7837739543        4.5625508919        3.2863360158
  O        27.0698218036       -0.2927104386        4.3369873828
  H        26.8104943049        0.1621129306        5.1401023727
  H        27.9441567138       -0.6230429092        4.6218374344
  O        16.5728075840        7.3760013383        4.9483694318
  H        16.5626156110        6.5425677603        4.4405689097
  H        15.6142201103        7.4180363770        5.3450357506
  O        -1.4908255770       11.0678057209        1.4303985981
  H        -1.5273452187       12.0666704758        1.3154097775
  H        -0.7440606135       10.9403224188        0.7527157527
  O        12.6670701202        9.7075522964        5.0263834050
  H        11.9168070504        9.1497035244        4.8894930322
  H        13.3623296746        9.1257090173        4.8272491123
  O         8.3445111990       26.5465607707       -9.5044575201
  H         7.5726174799       26.8312475822       -8.9493491869
  H         9.0123353272       27.1328670057       -9.1028579988
  O        27.1068568563       24.1189867245       -8.0458528485
  H        26.4237629658       24.8436676300       -8.2136982760
  H        -5.4365558630       23.5868167110       -7.4393901898
  O        -2.1012853652       24.1900407905       -8.3211478199
  H        -3.0350730829       24.2891958670       -8.0137486610
  H        -1.6988935044       23.7692212597       -7.5427849510
  O        -1.7993310930        0.9982925938        5.0071291144
  H        -1.2243443075        0.5549016339        4.3678805788
  H        -2.3131153484        1.5808054017        4.4215660946
  O         6.5609561026        0.4057086796       -1.8433453238
  H         5.6381006246        0.5306627649       -1.6041227943
  H         6.9587359787        1.2439548890       -1.8064228942
  O        12.9019614676       22.2437339467      -10.1905627852
  H        13.6197891383       22.9055462611      -10.2188506208
  H        12.8729283764       22.0879906318       -9.2215975183
  O        11.1646876364       10.1573730859        0.2025424846
  H        10.3545247470       10.7247490839        0.0441431793
  H        11.8165924583       10.8398720230        0.4744026399
  O        -2.8402350528       20.0738645162        5.7147775065
  H        -2.7595079250       20.5589518308        4.8992420185
  H        -1.9985152763       20.3681186146        6.1363861560
  O         3.9743156548       25.2861166859        4.1012948250
  H         4.3315810092       25.7514803802        4.8543360831
  H         4.2056630699       25.8977780856        3.3482821838
  O        18.7635334103       -3.1020261430      -10.5262632121
  H        19.5832824931       -3.6025037999      -10.4902694156
  H        18.8864436997       -2.6700006422      -11.3952914138
  O        -1.0628767070       10.1441401439       -9.1149442363
  H        -0.8997686923       10.7649618778       -9.9294509835
  H        -1.0291276333       10.8275774731       -8.4031380688
  O        21.5003998542        7.9892017423       -1.7303290692
  H        21.6794192694        8.4615480074       -2.5747490464
  H        22.1790533360        8.4236985289       -1.1799810818
  O        13.9602203950        2.7245837096      -12.9171843297
  H        13.4929353090        2.3417000878      -12.1098068617
  H        14.0543247298        3.6672710499      -12.5987470911
  O        22.4925375258       -1.0561434720      -11.7936219259
  H        22.2636403694       -1.8662249089      -11.2578057840
  H        23.4601822884       -0.9960822646      -11.5792680577
  O        13.7226066724        2.7957795586        9.5387283311
  H        13.1107013996        2.0367674507        9.6442916823
  H        14.6138198340        2.2324220519        9.4068817329
  O        17.7066537884       17.5383337905      -11.5693086668
  H        18.2319022686       16.8191464569      -12.0605171850
  H        18.3448228854       17.6954875117      -10.8349485343
  O        15.6620811896       16.4845879763      -15.7891929394
  H        16.0454052884       17.3172765668      -15.4232934026
  H        14.7612163208       16.5849356387      -15.3928216499
  O         5.2769404388        3.1989870023       11.5758626721
  H         5.2266613409        2.2017564218       11.4149597873
  H         4.7609411737        3.6097358290       10.8392882182
  O        24.8383570079       13.5294419434       -0.7286738328
  H        23.8714727926       13.6597202953       -1.0062508747
  H        25.1445925158       14.4313763557       -1.0355915676
  O         5.4656006289       -0.1761347189       -9.0757397557
  H         4.5145230656       -0.1767415461       -9.2483443191
  H         5.7075276209        0.3697629677       -9.8662595149
  O        -3.2831151975       15.0853029095       -1.1221670921
  H        -3.2441790239       14.7106583281       -2.0378687032
  H        -3.0082364339       14.3406819972       -0.5896624590
  O        10.1364894252        2.1519864754        0.3706560846
  H        10.2164420097        2.4348754606        1.3063066126
  H        10.3780790377        1.2145733467        0.3894557754
  O         5.8738930735       11.1815334471       -2.2114552070
  H         6.4439933577       11.2677593988       -3.0316382280
  H         5.8823815568       12.1356525808       -1.8975481631
  O        16.6917289974       16.1085538110        2.5243752090
  H        16.7021030967       15.1638085473        2.3475729096
  H        17.5903728333       16.4779833846        2.6327948345
  O         5.6804195519       11.4434976716       -6.4614041552
  H         6.4573249963       12.0275608219       -6.3765555944