#     Step Nr.          Time[fs]        Kin.[a.u.]          Temp[K]            Pot.[a.u.]        Cons Qty[a.u.]        UsedTime[s]
         0            0.000000         3.844830508       300.000000000     -1262.993930184     -1259.148624653         0.000000000
         1            1.000000         3.737127679       291.596287896     -1262.828351848     -1259.089909011        50.583807010
         2            2.000000         3.704255486       289.031374281     -1262.796222193     -1259.089845984        12.918216284
         3            3.000000         3.739929652       291.814916984     -1262.850393809     -1259.107563120        12.955346033
         4            4.000000         3.716784221       290.008952017     -1262.817016599     -1259.096571376        12.274104267
         5            5.000000         3.802241378       296.676904488     -1262.932863940     -1259.126217622        12.948291566
         6            6.000000         3.783788783       295.237106653     -1262.899778732     -1259.110845265        12.272410817
         7            7.000000         3.771009693       294.239994554     -1262.966648230     -1259.189768905        12.928862758
         8            8.000000         3.859027914       301.107778802     -1263.087619406     -1259.222001743        12.952539921
         9            9.000000         3.768911622       294.076288746     -1262.969918000     -1259.193698137        12.952364039
        10           10.000000         3.708209078       289.339860633     -1262.913284366     -1259.197076631        12.966890767
        11           11.000000         3.694971026       288.306937151     -1262.909088897     -1259.205460646        12.931935888
        12           12.000000         3.688804982       287.825820229     -1262.891418533     -1259.193327914        12.890089490
        13           13.000000         3.832012163       298.999824919     -1263.077278724     -1259.235367591        12.904568464
        14           14.000000         3.816100855       297.758315787     -1263.080369770     -1259.253752421        13.568740085
        15           15.000000         3.751099148       292.686437536     -1262.998346104     -1259.236126051        13.569965217
        16           16.000000         3.815164727       297.685272620     -1263.085329141     -1259.258454209        13.551230878
        17           17.000000         3.782267893       295.118436394     -1262.986332030     -1259.191770117        12.888976857
        18           18.000000         3.797964100       296.343161974     -1263.070141348     -1259.259311550        13.541748885
        19           19.000000         3.775675064       294.604018774     -1263.009502894     -1259.220400747        12.874761224
        20           20.000000         3.717050460       290.029725800     -1262.918650906     -1259.187631927        13.508440595
        21           21.000000         3.865572635       301.618442773     -1263.143611201     -1259.263541892        12.938880462
        22           22.000000         3.911291224       305.185720083     -1263.191511095     -1259.265179411        12.980031189
        23           23.000000         3.867885740       301.798926988     -1263.116729879     -1259.233248084        12.911772389
        24           24.000000         3.869873714       301.954042364     -1263.105196078     -1259.219167354        12.903802093
        25           25.000000         3.803793291       296.797995333     -1262.993903259     -1259.173396777        12.898382422
        26           26.000000         3.877082512       302.516522165     -1263.127140350     -1259.232790072        12.881160561
        27           27.000000         3.911573125       305.207715921     -1263.184765426     -1259.255355984        13.568627186
        28           28.000000         3.832156734       299.011105344     -1263.029620967     -1259.179051426        12.919932988
        29           29.000000         3.899265994       304.247429303     -1263.140350447     -1259.222094197        12.944644369
        30           30.000000         3.901048988       304.386550715     -1263.104369096     -1259.183737121        12.860541850
        31           31.000000         3.894131970       303.846837590     -1263.101591917     -1259.187272637        12.952518724
        32           32.000000         3.897767541       304.130509689     -1263.124290965     -1259.205720924        12.941574160
        33           33.000000         3.774115972       294.482367752     -1262.967254348     -1259.171721879        12.908177860
        34           34.000000         3.833086443       299.083647650     -1263.043782442     -1259.188679256        12.930971142
        35           35.000000         3.920713482       305.920909143     -1263.142319917     -1259.198978534        12.881813210
        36           36.000000         3.880567108       302.788414155     -1263.065351254     -1259.161528216        12.954525504
        37           37.000000         3.906698220       304.827342433     -1263.105984936     -1259.175393883        12.956147231
        38           38.000000         3.856443314       300.906110601     -1263.046925800     -1259.165943073        12.930128355
        39           39.000000         3.855497926       300.832344937     -1263.050515037     -1259.169830657        12.876625471
        40           40.000000         3.906733500       304.830095255     -1263.126388249     -1259.193812353        12.899976898
        41           41.000000         3.807798997       297.110547944     -1262.994090414     -1259.159787246        12.909822416
        42           42.000000         3.829051246       298.768793919     -1263.009013995     -1259.152806570        12.865108211
        43           43.000000         3.890573618       303.569190570     -1263.079724315     -1259.161336287        12.910537448
        44           44.000000         3.891113328       303.611302482     -1263.050118533     -1259.130518211        12.924456026
        45           45.000000         3.942194053       307.596970357     -1263.127395347     -1259.156025098        12.912325457
        46           46.000000         3.849045643       300.328893652     -1263.024339548     -1259.145414718        12.947520312
        47           47.000000         3.819652618       298.035448609     -1263.015239876     -1259.165012168        12.956695259
        48           48.000000         3.894993954       303.914095490     -1263.118992401     -1259.192724155        12.936940555
        49           49.000000         3.830423115       298.875836573     -1263.025341432     -1259.162935717        12.890607934
        50           50.000000         3.843749498       299.915652138     -1263.051505813     -1259.175069411        13.254442558
        51           51.000000         3.857688754       301.003288400     -1263.001223142     -1259.110139221        13.027571373
        52           52.000000         3.854263037       300.735990487     -1262.995629546     -1259.107258279        13.578780420
        53           53.000000         3.941720728       307.560038320     -1263.115273992     -1259.138718194        13.540936679
        54           54.000000         3.862407385       301.371468279     -1263.009362529     -1259.111375295        12.938374143
        55           55.000000         3.814331962       297.620294580     -1262.957162985     -1259.106512384        12.923234142
        56           56.000000         3.877833194       302.575095469     -1263.054478802     -1259.139588118        12.902946781
        57           57.000000         3.851807171       300.544366986     -1262.984991836     -1259.095378423        12.882830676
        58           58.000000         3.883803089       303.040907563     -1263.034908632     -1259.112545124        12.937758926
        59           59.000000         3.849591522       300.371486914     -1262.961817941     -1259.072903862        12.881477132
        60           60.000000         3.805813915       296.955658226     -1262.915668153     -1259.069774472        12.878157482
        61           61.000000         3.904244612       304.635895119     -1263.043472690     -1259.098387862        12.946784548
        62           62.000000         3.855602488       300.840503633     -1262.978707362     -1259.081488910        12.879196357
        63           63.000000         3.788460594       295.601633344     -1262.910925806     -1259.080081222        12.909319919
        64           64.000000         3.803447777       296.771035939     -1262.944130863     -1259.097543263        12.921896629
        65           65.000000         3.785057035       295.336064397     -1262.911421738     -1259.082476201        12.226513047
        66           66.000000         3.864031771       301.498213990     -1263.015839889     -1259.107172248        12.912905987
        67           67.000000         3.835983618       299.309705019     -1262.983145450     -1259.101770220        12.882097274
        68           68.000000         3.739819963       291.806358326     -1262.875949090     -1259.089995119        12.927757666
        69           69.000000         3.805417500       296.924727225     -1262.973829832     -1259.121553388        12.979598496
        70           70.000000         3.811949854       297.434426197     -1263.023493131     -1259.163959464        12.936027899
        71           71.000000         3.830750728       298.901399122     -1263.003100524     -1259.124042659        12.914105579
        72           72.000000         3.850436641       300.437428849     -1262.992023029     -1259.092552758        12.917593114
        73           73.000000         3.794855173       296.100582180     -1262.946479605     -1259.101866113        12.900177181
        74           74.000000         3.892154550       303.692545749     -1263.119992140     -1259.177354408        12.918592434
        75           75.000000         3.924437566       306.211487701     -1263.146112819     -1259.170444536        12.873586491
        76           76.000000         3.852728965       300.616291680     -1263.082100041     -1259.177380615        12.890669886
        77           77.000000         3.862930127       301.412256133     -1263.114275600     -1259.198595008        12.913488306
        78           78.000000         3.825679124       298.505677870     -1263.056430515     -1259.177238510        12.924110610
        79           79.000000         3.864951067       301.569943721     -1263.107130666     -1259.187903319        12.895506036
        80           80.000000         3.890246026       303.543629647     -1263.149011056     -1259.203712468        12.917214558
        81           81.000000         3.797798577       296.330246726     -1263.006783728     -1259.153154102        12.928203817
        82           82.000000         3.845156828       300.025461714     -1263.063257111     -1259.161498347        12.887927800
        83           83.000000         3.872388144       302.150235419     -1263.094235162     -1259.164464210        12.887052782
        84           84.000000         3.836298542       299.334277549     -1263.041572284     -1259.147104085        12.897311900
        85           85.000000         3.842295150       299.802173962     -1263.140015707     -1259.238764780        12.909579758
        86           86.000000         3.772248158       294.336628116     -1263.041957464     -1259.209973335        13.532222692
        87           87.000000         3.808246002       297.145426365     -1263.033061177     -1259.164311202        12.877633102
        88           88.000000         3.872585892       302.165665089     -1263.109860222     -1259.175995714        12.970739588
        89           89.000000         3.806981949       297.046796312     -1263.006980561     -1259.137940081        12.944122486
        90           90.000000         3.821585209       298.186242634     -1263.046340667     -1259.161924576        12.898883700
        91           91.000000         3.835151444       299.244773125     -1263.072085696     -1259.173329645        12.913013812
        92           92.000000         3.853020501       300.639039343     -1263.096558302     -1259.179154888        12.867070671
        93           93.000000         3.904162587       304.629494997     -1263.246169053     -1259.276832442        13.613127772
        94           94.000000         3.827717580       298.664732159     -1263.123596204     -1259.229903995        13.636724215
        95           95.000000         3.825889272       298.522075062     -1263.115880321     -1259.223222028        13.534100097
        96           96.000000         3.871427229       302.075258274     -1263.186933687     -1259.247937623        13.629310429
        97           97.000000         3.824447212       298.409555639     -1263.119883709     -1259.227061459        13.548853841
        98           98.000000         3.833614066       299.124816383     -1263.128599187     -1259.225806909        12.932074778
        99           99.000000         3.799567823       296.468295393     -1263.079594443     -1259.210047524        12.951488089
       100          100.000000         3.797692771       296.321990982     -1263.025644326     -1259.157179862        12.967426635
       101          101.000000         3.861547300       301.304358550     -1263.115436945     -1259.182322956        13.536541570
       102          102.000000         3.792669671       295.930054334     -1263.002102079     -1259.137067495        12.952377170
       103          103.000000         3.779535187       294.905211960     -1262.991344549     -1259.138659941        12.923246201
       104          104.000000         3.822683199       298.271915287     -1263.108926331     -1259.212313866        13.528620340
       105          105.000000         3.814559078       297.638015766     -1263.086092763     -1259.196822848        12.903354034
       106          106.000000         3.847045457       300.172825489     -1263.139190318     -1259.216651125        12.951478988
       107          107.000000         3.796797901       296.252167147     -1263.036386773     -1259.163311770        12.936494045
       108          108.000000         3.779757605       294.922566537     -1262.977753274     -1259.120946832        12.922632448
       109          109.000000         3.864414798       301.528100339     -1263.061358036     -1259.119122231        12.901994113
       110          110.000000         3.845878655       300.081783602     -1262.986604296     -1259.062120397        12.944719367
       111          111.000000         3.834600355       299.201773423     -1262.990030923     -1259.076039613        12.910165362
       112          112.000000         3.824156185       298.386847744     -1263.019058600     -1259.114725812        12.877437219
       113          113.000000         3.811064491       297.365344152     -1262.992323184     -1259.100298805        12.919538468
       114          114.000000         3.893413612       303.790786415     -1263.101759219     -1259.126595375        12.995610155
       115          115.000000         3.860178648       301.197566904     -1263.067149069     -1259.124413524        12.880445126
       116          116.000000         3.791717929       295.855792950     -1262.986711779     -1259.111634197        12.938108996
       117          117.000000         3.815626733       297.721321532     -1263.026038294     -1259.126257532        12.255705323
       118          118.000000         3.800695447       296.556280376     -1263.041815602     -1259.156172995        12.913021434
       119          119.000000         3.815215238       297.689213872     -1263.048732931     -1259.147780857        12.866362765
       120          120.000000         3.794706807       296.089005689     -1263.031488965     -1259.150258347        12.899355967
       121          121.000000         3.748973890       292.520610379     -1262.985262736     -1259.148990710        12.915860604
       122          122.000000         3.833314316       299.101427830     -1263.092932951     -1259.171553265        12.866414115
       123          123.000000         3.851735892       300.538805344     -1263.099658019     -1259.159078289        12.915615678
       124          124.000000         3.810782578       297.343347366     -1263.020231646     -1259.119824310        12.898543242
       125          125.000000         3.800398723       296.533127936     -1263.030307399     -1259.139509323        12.928580888
       126          126.000000         3.780455092       294.976989265     -1262.975053105     -1259.103431229        12.916436575
       127          127.000000         3.841750423       299.759670677     -1263.050684317     -1259.117001270        12.293602027
       128          128.000000         3.835065824       299.238092470     -1263.028730316     -1259.100957781        12.868548628
       129          129.000000         3.771273919       294.260611285     -1262.919051245     -1259.054301852        12.923791077
       130          130.000000         3.833753543       299.135699362     -1262.977350852     -1259.049359476        12.937407110
       131          131.000000         3.868306939       301.831791882     -1263.008859081     -1259.045539837        12.271451693
       132          132.000000         3.871669542       302.094165175     -1263.035927864     -1259.068458362        12.278873254
       133          133.000000         3.845254916       300.033115226     -1263.065310048     -1259.123459665        12.867631249
       134          134.000000         3.767194020       293.942269641     -1262.961715649     -1259.097136986        12.882684026
       135          135.000000         3.829701943       298.819565739     -1263.016998009     -1259.089130064        12.966340803
       136          136.000000         3.882712286       302.955795643     -1263.042061849     -1259.060387754        12.239815459
       137          137.000000         3.828605805       298.734037580     -1262.971876593     -1259.043502449        12.271923732
       138          138.000000         3.808001901       297.126379919     -1262.960371014     -1259.051798403        12.936177731
       139          139.000000         3.796985498       296.266804725     -1262.975276836     -1259.076922531        12.951789558
       140          140.000000         3.858502315       301.066767985     -1263.043758679     -1259.083085674        12.232932355
       141          141.000000         3.893408469       303.790385081     -1263.094137067     -1259.097737445        12.289634455
       142          142.000000         3.804688064       296.867811691     -1263.008959386     -1259.100452283        12.896777399
       143          143.000000         3.802882632       296.726939529     -1262.997778569     -1259.090257935        12.942821097
       144          144.000000         3.856738064       300.929108998     -1263.097288829     -1259.135088454        12.910008002
       145          145.000000         3.893285544       303.780793630     -1263.166124206     -1259.166533433        12.889481410
       146          146.000000         3.904031407       304.619259469     -1263.177253637     -1259.166052632        12.908516761
       147          147.000000         3.816011373       297.751333736     -1262.981675984     -1259.057622534        12.880910870
       148          148.000000         3.805454841       296.927640864     -1262.962361566     -1259.047999687        12.907702390
       149          149.000000         3.862178677       301.353622861     -1263.057231679     -1259.085274402        12.916145064
       150          150.000000         3.837490448       299.427278228     -1263.019256201     -1259.071102837        12.285051242
       151          151.000000         3.830120450       298.852220551     -1263.030970021     -1259.089299223        12.933122795
       152          152.000000         3.816395196       297.781282246     -1262.984923891     -1259.056088501        12.920165621
       153          153.000000         3.831431928       298.954551063     -1262.993734618     -1259.048969367        12.916237667
       154          154.000000         3.883070434       302.983740845     -1263.024881448     -1259.027570264        12.942527216
       155          155.000000         3.816993696       297.827981349     -1262.963207258     -1259.031053976        12.952386241
       156          156.000000         3.783761057       295.234943308     -1262.897766852     -1258.997935391        12.918613978
       157          157.000000         3.815814513       297.735973426     -1262.965470575     -1259.032676849        12.931896213
       158          158.000000         3.818667172       297.958557395     -1262.891785429     -1258.955223824        12.947410326
       159          159.000000         3.848531594       300.288784058     -1262.873629528     -1258.906280014        12.247162212
       160          160.000000         3.827281294       298.630690172     -1262.873887712     -1258.926855471        12.310542464
       161          161.000000         3.844143122       299.946365399     -1262.900527069     -1258.935693831        12.316752899
       162          162.000000         3.920900437       305.935496667     -1262.970085267     -1258.927533170        12.273115173
       163          163.000000         3.892349791       303.707779815     -1262.910122364     -1258.895130852        12.328666423
       164          164.000000         3.869687690       301.939527486     -1262.926961852     -1258.933629044        12.268820204
       165          165.000000         3.879726560       302.722828859     -1262.942037807     -1258.937648181        12.890652880
       166          166.000000         3.890810375       303.587663972     -1262.947598346     -1258.931086484        12.908753101
       167          167.000000         3.926864306       306.400838574     -1262.975893777     -1258.922262293        12.301066078
       168          168.000000         3.861134794       301.272171978     -1262.901642235     -1258.912653399        12.277072400
       169          169.000000         3.797762236       296.327411122     -1262.876056188     -1258.949356370        12.216225971
       170          170.000000         3.832726331       299.055549241     -1262.931665934     -1258.968917895        12.231099207
       171          171.000000         3.835790753       299.294656371     -1262.930569457     -1258.963659007        12.252295867
       172          172.000000         3.820637809       298.112319950     -1262.932679697     -1258.979816363        12.322260059
       173          173.000000         3.770599735       294.208006853     -1262.889491340     -1258.985563420        12.296623368
       174          174.000000         3.747285487       292.388869628     -1262.890063017     -1259.008359331        12.913174018
       175          175.000000         3.820497902       298.101403467     -1262.993565132     -1259.037556653        12.904988635
       176          176.000000         3.804287712       296.836573474     -1262.981278965     -1259.040374994        12.911647040
       177          177.000000         3.737175703       291.600035029     -1262.907218418     -1259.032329938        12.950538773
       178          178.000000         3.723904070       290.564491380     -1262.896652348     -1259.033958230        12.883379553
       179          179.000000         3.729391262       290.992639614     -1262.890804814     -1259.021558378        12.240822859
       180          180.000000         3.795677512       296.164746721     -1262.972981947     -1259.036382945        12.267428514
       181          181.000000         3.797672736       296.320427769     -1263.001915112     -1259.062243996        12.935985927
       182          182.000000         3.756436250       293.102874757     -1262.937556280     -1259.038048426        12.955589712
       183          183.000000         3.819690569       298.038409807     -1263.019191823     -1259.055355809        12.885322530
       184          184.000000         3.851141745       300.492445933     -1263.028786875     -1259.032405636        12.897600237
       185          185.000000         3.842473709       299.816106394     -1263.005473001     -1259.016649434        12.908008218
       186          186.000000         3.804708066       296.869372327     -1262.994120546     -1259.041947187        12.886363566
       187          187.000000         3.757992110       293.224273588     -1262.934350640     -1259.027785224        12.919526253
       188          188.000000         3.832414875       299.031247325     -1263.048192732     -1259.066093485        12.931178775
       189          189.000000         3.865344707       301.600658242     -1263.088916588     -1259.072750810        12.930030212
       190          190.000000         3.817590858       297.874575955     -1263.031699659     -1259.062137522        12.896965675
       191          191.000000         3.803791038       296.797819558     -1263.061943599     -1259.105031072        13.679276466
       192          192.000000         3.787278848       295.509425398     -1263.042727816     -1259.101176159        13.544586819
       193          193.000000         3.818491256       297.944831195     -1263.131414824     -1259.157493410        13.534452569
       194          194.000000         3.815691891       297.726405550     -1263.132892187     -1259.160600367        13.581419829
       195          195.000000         3.743167108       292.067525483     -1263.024728989     -1259.123796972        13.545946565
       196          196.000000         3.767170093       293.940402659     -1263.029597778     -1259.103508597        13.513190795
       197          197.000000         3.804967767       296.889635985     -1262.985834734     -1259.020784834        12.909155048
       198          198.000000         3.804191143       296.829038494     -1262.980797097     -1259.015349461        12.912180021
       199          199.000000         3.797838887       296.333391974     -1262.969964702     -1259.009689641        12.851708528
       200          200.000000         3.738404286       291.695897477     -1262.881159635     -1258.979145622        12.189672183
       201          201.000000         3.762993111       293.614485960     -1262.860094761     -1258.932327943        12.289859049
       202          202.000000         3.817935450       297.901463419     -1262.962957343     -1258.979072507        12.915606063
       203          203.000000         3.798483436       296.383684108     -1262.928635248     -1258.963013521        12.856009088
       204          204.000000         3.821818817       298.204470303     -1262.961542695     -1258.971389135        12.245313954
       205          205.000000         3.832706415       299.053995267     -1262.952889360     -1258.950635992        12.182608899
       206          206.000000         3.850486507       300.441319738     -1262.969074183     -1258.947810693        12.221579541
       207          207.000000         3.876543145       302.474437031     -1262.992082997     -1258.943508624        12.215662491
       208          208.000000         3.808207248       297.142402466     -1262.942466839     -1258.960961022        12.205755908
       209          209.000000         3.803929805       296.808647125     -1262.941184679     -1258.962690473        12.213892974
       210          210.000000         3.842513369       299.819200901     -1262.928795237     -1258.910436685        12.190766070
       211          211.000000         3.820958439       298.137337732     -1262.881313276     -1258.883211507        12.253840860
       212          212.000000         3.824443130       298.409237143     -1262.894366579     -1258.891472509        12.253852066
       213          213.000000         3.789186325       295.658259870     -1262.821962927     -1258.853011774        12.186671693
       214          214.000000         3.780591375       294.987622988     -1262.809192687     -1258.847523727        12.205052540
       215          215.000000         3.815501929       297.711583457     -1262.861079546     -1258.863177478        12.174951982
       216          216.000000         3.756695213       293.123080831     -1262.823640461     -1258.883217960        12.182321113
       217          217.000000         3.737394790       291.617129697     -1262.782815664     -1258.860379606        12.234787229
       218          218.000000         3.762151775       293.548839199     -1262.810890513     -1258.862385733        12.241554357
       219          219.000000         3.780501954       294.980645764     -1262.814419911     -1258.846245317        12.273941945
       220          220.000000         3.820575097       298.107426723     -1262.879424890     -1258.869842604        12.210861966
       221          221.000000         3.770123347       294.170835775     -1262.832439150     -1258.871966028        12.892118067
       222          222.000000         3.745947874       292.284499893     -1262.805991795     -1258.868361920        12.186767686
       223          223.000000         3.797443675       296.302554799     -1262.855648480     -1258.865186465        12.201997049
       224          224.000000         3.792482502       295.915450130     -1262.815610543     -1258.828758966        12.239073616
       225          225.000000         3.803593821       296.782431334     -1262.842318092     -1258.842996350        12.894150876
       226          226.000000         3.801782116       296.641069682     -1262.859680715     -1258.860801628        12.827894896
       227          227.000000         3.813721839       297.572688660     -1262.859165329     -1258.846966732        12.854710348