    2699
 i =     4820, time =     4820.000, E =     -1262.7427891102
  C        13.1090572193       11.5751900405       11.9393452358
  O        13.5563832139       12.1217643226       12.8473796059
  O        12.6438155869       11.0869117744       10.9592857763
  N        15.3960259150       10.2316762020       11.8784305104
  H        15.7273706096        9.9812934512       10.9709047616
  H        15.6935313460        9.4298418436       12.3747875684
  H        15.8039606618       11.1302346926       12.0698819757
  N        16.5377318696       12.8712413795       12.3583762616
  H        15.6682206108       12.9691697376       12.8954836756
  H        17.3669168954       13.1310146559       12.9259164591
  H        16.5293329065       13.4866424097       11.5786136857
  O        31.4658554340       15.2313118554        1.8255027456
  H        31.5490050697       14.7543267286        0.9837496348
  H        31.0670545475       14.5579495680        2.3557892908
  O        -0.2055368137       20.1023488607        5.5766503183
  H        -0.0230505883       19.1721478268        5.7453855724
  H        -0.0969292039       20.1918424019        4.5895160196
  O         3.7246715914        7.6765970846       -7.2345159412
  H         4.6676899474        7.6519492738       -6.9165494439
  H         3.8602844736        8.3036354458       -7.9791867237
  O        30.5039953327       24.5317077591       -3.4754044292
  H        30.9871818482       24.4612034241       -2.6063276572
  H        29.6779880023       24.9495801006       -3.2231236519
  O        25.9901447956       11.0428414885       10.1223251944
  H        25.7532423931       11.6537774841       10.7856064169
  H        25.3202667504       11.2471447462        9.4044874182
  O        21.0419510125       -0.8938087093       10.0471530639
  H        20.3607554552       -0.4826941706        9.4684357569
  H        20.8630522983       -1.8477961422        9.8054795863
  O         0.1579890235       17.6222494453       -1.2239629582
  H         0.6450355151       16.7922127145       -1.4332770814
  H         0.8279435631       18.1159847955       -0.7915323956
  O        -0.0799279836       11.0450518901        0.3712235326
  H         0.1373855276       10.1517993583        0.0736961977
  H         0.8011140098       11.4265569213        0.4721921118
  O        28.9840804575        2.9894481518       -3.3255765413
  H        28.0913489573        3.3785093996       -3.6018784517
  H        28.9786518386        2.2665329973       -4.0277914049
  O        18.8561140928       25.2441002798       -0.5256453470
  H        19.3368210669       25.0430220373       -1.3325185017
  H        19.5437394781       25.4637170395        0.0807942211
  O         3.6412254116       11.3390533429        3.1689635247
  H         3.2757270082       11.5977030638        4.0505475429
  H         3.3720107328       10.3598016953        3.2281592117
  O         6.2262574381       21.4402815465      -12.9152452178
  H         6.3136126475       22.1137103853      -12.2211487478
  H         5.2958076453       21.3094068948      -12.9555011692
  O        27.5611333289        6.9221818864        1.4342207151
  H        27.0349261917        7.3804565110        0.7313879379
  H        27.5709190152        6.0057854912        1.0884488617
  O         7.1850230223        2.7027247051       -7.2824018055
  H         7.5877274362        2.4764053300       -8.1212966323
  H         6.3787715958        2.1175343597       -7.3605502174
  O        22.0584571601        1.2217912981        2.6265675930
  H        21.8301890324        0.3083110652        2.9026513823
  H        21.5019104171        1.3122456022        1.8289208176
  O        13.2630361194        4.0480564608      -10.0877746020
  H        14.1945136401        4.3808439093      -10.0523923171
  H        13.2771031894        3.4820115080       -9.2537416038
  O        -0.3491986238       20.1762141113        3.0220951795
  H         0.4666776031       20.1976436550        2.4056897889
  H        -0.9504684285       19.6193649529        2.4321477351
  O        25.0690024552       -3.3138606855       -3.8757983363
  H        25.5976602915       -2.7204885333       -4.3904062687
  H        24.9794063652       -2.7732242414       -3.0409846496
  O        18.9286426519       26.6069743025       -6.8556859982
  H        18.4438228181       27.4885505716       -6.6981146452
  H        19.8291283525       26.9243662658       -6.9038836646
  O        20.7293416839       17.2974279961       -8.2149893590
  H        19.7671393463       17.4603968656       -8.1168528681
  H        21.0441497158       17.6476118721       -7.3486498074
  O        11.2432890710       15.7648706124      -11.4765157441
  H        11.0404708161       16.2013132470      -10.5894550622
  H        11.1706363712       16.5613813903      -12.0057431543
  O        19.4490745947       28.4007246051      -12.0556245888
  H        19.2779284551       29.1175333166      -11.4369214756
  H        18.6348449309       28.4311682399      -12.5862703576
  O        26.3100380964        8.0826734073       -3.1678681525
  H        26.9986563772        7.4940956619       -3.3841290788
  H        26.2001275336        8.0436862039       -2.2157251086
  O        17.8390865904       -3.3546646579       -5.3142768384
  H        18.0523403785       -3.5304349196       -4.3533715894
  H        17.5964491328       -2.4104830133       -5.2158195599
  O        -5.7018442734        4.6474541774       -9.2132055587
  H        -5.3241706656        5.1784782410       -9.9192621920
  H        -5.4857694125        5.1832679603       -8.4039304955
  O        21.9591717032       13.5515060895       -1.4881670193
  H        22.5203663301       12.8008117085       -1.7030650061
  H        22.6045085424       14.1770440468       -1.1331548878
  O        18.3523459568        8.3520747836        3.6334070772
  H        17.7850936056        8.9924476172        3.1238626478
  H        19.1848204585        8.8805933578        3.6532115810
  O         3.9536367960       25.5013563073       -1.9623661953
  H         3.6410706657       26.4425796110       -2.1244028031
  H         4.8277257613       25.7210056561       -1.5397133308
  O        28.0733534669        9.2031269980      -11.4840174516
  H        28.1856576484        9.4290437352      -10.4893170472
  H        27.1629860659        9.5739981620      -11.6197894789
  O        14.2648843236       -1.7173730879       -3.3912383319
  H        13.7670715321       -1.1229175165       -3.9827056220
  H        13.5300178730       -2.2271364320       -2.9111989039
  O        20.5752855442       -0.9771614920        3.2982221938
  H        20.0749248912       -1.2820790198        4.0865183824
  H        20.9466337562       -1.8567376802        3.0114565038
  O         0.2372867343        7.8318791584       -9.8087158293
  H         0.3645211481        7.8019210649       -8.8224113266
  H         0.2591803984        6.9055649789       -9.9900167261
  O        30.7935918314       -6.6305731649        8.7554660853
  H        31.0438500063       -7.5602962344        8.7559518768
  H        29.8608347245       25.3160684954        8.6099915550
  O         8.7214943363       -0.0189901637        2.8670683953
  H         8.3288527780       -0.1682805658        3.7769571214
  H         7.8504017122        0.2736873502        2.4156468822
  O         7.2824675306        3.3535697476       -1.0484689826
  H         6.5238841486        3.5502425029       -0.4519715526
  H         7.2811396205        2.4016137536       -1.1083094266
  O        11.1921139343       -3.2803962143      -12.0137820732
  H        10.2914656848       -3.4343450609      -12.4270304326
  H        11.2283458241       -2.3040941172      -12.0835390530
  O        29.7493988282       15.2388850711       10.4780501883
  H        29.7743658242       15.3930493584       11.4336056700
  H        29.1107341950       14.5205336540       10.4291649571
  O        28.8585062348       11.9379436265        0.6457212346
  H        29.5600875888       11.6976316855        0.0434341207
  H        29.2573132348       11.6299157114        1.5159923048
  O        26.5630232297        3.5989822458       -4.4548276355
  H        25.7616469753        3.5304330716       -5.0575884741
  H        26.1132304118        3.4814313420       -3.5767370960
  O         4.3353196350        4.7910776590      -10.0817077925
  H         4.1946918955        5.7360162571      -10.3891073672
  H         4.1201648114        4.3731189291      -10.9665578829
  O        11.7043260235        4.5946790538        3.5034101427
  H        10.8089628269        4.2097139360        3.6815638200
  H        11.6142782860        5.4039395571        4.0584443158
  O        12.5537724678       -0.2480592757       -1.4067686436
  H        12.3028902918       -0.1291844405       -0.4509869925
  H        13.3893869561        0.2041732365       -1.4225548373
  O         5.3153009940        1.8620927373      -11.7714164912
  H         4.8012444898        2.6485535129      -12.1172484053
  H         4.6701207262        1.5123335756      -11.1289588013
  O        29.0256823499        3.5427924191        2.2808816888
  H        29.6234674159        4.2427765334        2.5820539226
  H        28.4284061829        4.0582464734        1.6928766022
  O        14.3345751134       12.6568511312        3.1268559394
  H        14.4257548721       12.7678997654        2.1016824350
  H        13.5655462517       12.0938084312        3.0139729034
  O         6.8808065928       10.1673049305       -9.5017943155
  H         7.1990747216       10.9591842503       -9.9939358150
  H         6.8127361743        9.5426824712      -10.2409738630
  O        10.5312599993       12.6124550005       -8.5328499957
  H         9.9411530932       12.3752371247       -7.7938798383
  H        10.9445831763       11.7261057049       -8.6553475031
  O        31.5981133729        7.2822330216        8.8211748442
  H        30.7131234655        7.0652817084        9.2348665107
  H        32.2134365119        7.0709472724        9.5448200749
  O        21.9207876752       12.7631379773        7.3042403276
  H        22.0217680965       11.8929502577        6.8838204081
  H        21.4374627792       12.5504035423        8.1309480459
  O        13.4665992444        0.2525636562       -9.4761869397
  H        12.7196822107        0.4980444777       -8.9301248563
  H        13.1700554055        0.5521021765      -10.3491960829
  O        19.6307362932       17.2039067975       -0.1577536092
  H        19.4557162585       17.1485558747       -1.1145255192
  H        18.7566307323       17.2893315150        0.2694129814
  O        13.8086217298        7.3394886084        6.3566546858
  H        12.9017199863        7.5354969296        6.1024235065
  H        14.4008768750        8.0199790953        5.8748298327
  O         8.1293286635       20.5347204504        5.9342114942
  H         8.1487286540       19.5813360145        6.1104975523
  H         8.9196476114       20.7054060509        5.3653560744
  O         9.3719839813       26.3331339662       -1.5889345744
  H         9.6205640890       25.5225234276       -2.1026083858
  H         9.3760359680       27.0210366925       -2.3484195533
  O         8.7287870679       -0.6661840249      -12.5728505609
  H         8.6496623533       -1.3073168073      -13.3118722353
  H         9.7238695088       -0.6773181476      -12.5073616757
  O        15.3957899727       20.3337445535        3.5617420116
  H        16.2595650230       20.6023242163        3.9554081295
  H        15.6643426572       20.2123153130        2.6315726061
  O         7.6317940171       -1.6312559514        9.8586137956
  H         7.2323037542       -2.4446046963        9.5398683764
  H         7.2575791048       -1.6259682323       10.7552389788
  O        19.9264269350        2.8640399435      -12.8219098448
  H        20.7288249519        3.3887714186      -13.0868108989
  H        20.1889425898        1.9792867040      -13.2064199645
  O        29.8732172693       23.5650125105      -12.3643403846
  H        30.7469707394       23.4066198723      -11.9067408013
  H        30.2787889242       23.7405478939      -13.2692878672
  O         9.2848501263       -2.5101955522        7.5279103406
  H         9.2572325789       28.8728339717        8.2747794820
  H        10.0980485876       -2.7724044649        7.1222234757
  O         3.9876300516       17.5645348620       -1.3394401310
  H         3.7872919443       17.6426132982       -2.2888761606
  H         4.4777282990       16.6999422658       -1.3431647674
  O        24.5467537670       20.0735984829        6.4654909568
  H        25.4554163630       20.3777788445        6.2679828751
  H        24.4845500147       19.2779301979        5.8939588442
  O        11.2608728948        7.6615000193        0.9914732331
  H        10.9779290869        7.1325968066        0.2081987735
  H        10.3510360344        8.0466451828        1.2568549270
  O        27.3320492051        4.3926351667        9.6828650033
  H        26.6076612680        3.8748141876       10.0944325905
  H        27.8936581695        3.6331455648        9.4055369669
  O         5.2324506582       -2.2462243470        3.1670828091
  H         5.9149352706       -1.7553516573        3.6437272242
  H         5.0714146589       -3.0143635034        3.7373563655
  O        17.9940820897       21.2848813688        4.6342850592
  H        17.7922095667       22.1950761895        4.2566333227
  H        18.9471976008       21.3289592408        4.6247178466
  O        26.1894468659       26.8599311885        0.3219688410
  H        25.6323243111       27.6632148569        0.3849886732
  H        26.5976990865       27.0239194656       -0.5156992994
  O        19.5095082573        9.1318928016       -2.6299391176
  H        19.2738098421        9.2939413051       -1.6717490037
  H        19.7017975763        8.1908278196       -2.6260356008
  O        15.7333745055        0.5062846784       12.2958507927
  H        16.1497282276        0.4422596348       13.1327420898
  H        16.2038380260       -0.2413524682       11.8162040611
  O         5.5075392580       30.4674475003       13.7020389511
  H         6.4376345387       30.5449128371       13.3416917328
  H         5.6384341693       30.9787970299       14.5021397804
  O        -0.8676878554        5.4759911324       -0.3342583177
  H        -0.6642697598        4.5098499898       -0.5311302086
  H        -0.6740425844        5.4468335471        0.6717095010
  O         8.6126345087       10.1031757022      -13.0094773920
  H         9.5055748868       10.5006666880      -12.7492548037
  H         8.9950744598        9.4217819774      -13.6614016507
  O         4.1097300575       -3.5758869035       -0.8840740373
  H         3.7487376206       -2.7681046435       -0.4757930505
  H         4.5024188611       -3.9947120808       -0.0844870883
  O        26.2761957844       13.0452565775      -11.9342871093
  H        25.9990869256       13.8764952526      -11.3984263419
  H        25.3978893056       12.7527974420      -12.1980536342
  O        17.2315341594       16.8097551027        4.4746934864
  H        17.3926256131       17.7236570986        4.1051505098
  H        16.2789689330       16.7909565336        4.6906716274
  O        15.2812778210        9.4451707011       -0.7059662200
  H        15.1775768274       10.3474102333       -0.9512147115
  H        15.6477107581        9.4825582895        0.2235703450
  O        11.6922384553       14.9353530677       -7.5241882105
  H        11.2534437623       15.6323133001       -8.0456750402
  H        11.1824039040       14.1596662742       -7.8580580029
  O        20.4923313691       -2.9154375853       -3.5218565654
  H        20.8172584254       -3.7691263515       -3.8301411006
  H        19.7945879822       -3.2183427735       -2.9280185297
  O        24.6083120749        6.6370689676      -13.8671871739
  H        24.8581381281        7.4224211576      -13.3233118703
  H        23.6264137125        6.7907242813      -13.9209730593
  O        11.8633510818       20.0380178386        1.8400862419
  H        12.0904817620       19.6755140539        2.7468795438
  H        11.0104345639       20.4483260150        1.9953164410
  O        22.8260534021       -0.4116962139       -8.6996463016
  H        22.9695853511        0.5216952075       -8.4242391599
  H        23.7230626602       -0.7426077963       -8.6059783919
  O        13.5730443120       18.7689594713       -9.3014868404
  H        14.3477958944       18.6646859378       -9.8986686183
  H        13.7247560607       17.9065561347       -8.7666830598
  O        12.0558863809       16.0310654332        7.0874865265
  H        11.6932417163       16.9231988030        7.0964704627
  H        11.9122618306       15.7198594910        6.1611269482
  O        12.6314508945       14.4294072165        9.8969438187
  H        11.8018243350       14.9240059848        9.6185021636
  H        12.5564642083       13.5507732062        9.5881201301
  O        10.9398884184        2.4512218877        6.1405128529
  H        10.1028104403        2.6237555869        5.6991158053
  H        10.8365949895        3.0082007679        6.9139573096
  O        23.3603702423       16.0981367195        8.4674060582
  H        23.4404189668       15.5093638893        9.2814863764
  H        23.6519745957       15.5286037446        7.7692247379
  O        29.9432583844       20.3046807537        8.4451032454
  H        30.0655202010       20.1710261358        7.4905732961
  H        30.0336639922       19.3530103342        8.7648192130
  O        11.0296374720        6.3828373201       -1.1748516714
  H        10.3108388992        5.9540356415       -1.6475384465
  H        11.8187428716        6.0254746108       -1.5905182422
  O         1.5516484795        2.3906332285        1.8358493814
  H         1.5614707556        1.5783124352        2.3775279577
  H         1.1793558898        3.0177751400        2.4850061893
  O         0.6194720863        3.6753810683        3.9530214233
  H         0.2560983878        2.9438089320        4.4433694110
  H         1.3560031857        3.9046057256        4.5485916217
  O        10.6265772219       -1.9206250258        3.0875939703
  H        10.1844843937       -1.0759838360        2.9191197308
  H        11.4802015306       -1.6949029204        3.4288511433
  O        21.3382246914       18.4727898861       10.0208545130
  H        22.0462285094       18.5519415185        9.3049224405
  H        21.3171930886       19.4097585139       10.2612992218
  O        20.4452184359       25.2084985342      -11.4970930284
  H        20.6722512027       26.0117226519      -10.9728478822
  H        21.3464759355       24.8674724077      -11.6947270631
  O        13.0540377612        2.6553369282       -7.3144768930
  H        12.6525442819        3.0170028393       -6.4795466697
  H        13.8806263859        2.2724038753       -6.8650158927
  O        24.1992889802       28.7064669886        0.9630171052
  H        23.5242905281       -3.2098793907        1.6502009392
  H        23.6838309140       28.9301433454        0.1341472621
  O        17.5269978069       22.2006589017       -1.1543088987
  H        17.4176176171       21.5480907953       -1.8753624083
  H        17.9611910125       22.9209398679       -1.6707748794
  O         8.1613701130        5.6952306497       10.8202712465
  H         8.7615628444        6.4788686740       10.6059787263
  H         7.8981366856        5.4711561213        9.9390470315
  O        25.8114006541       -0.0685052179        4.1051360970
  H        26.3985503599       -0.6896824384        4.5437430853
  H        24.9789517262       31.8175968050        4.6389632555
  O         5.2965318334       13.6638680029        2.8741434965
  H         4.7303946118       12.8990175158        2.7643617832
  H         4.9984046294       14.0356545315        3.7606771181
  O         5.0941389406        4.6227564957        0.3123606622
  H         4.2286743796        5.0042427522        0.0239039782
  H         4.8888803873        3.7782726219        0.6253770167
  O        15.5166920242       10.1782622546        8.5590488951
  H        14.5973520693       10.3671194229        8.9198435770
  H        15.6957363934       10.5599022175        7.6741298827
  O        17.9570280050        7.9390922781       -9.1406000844
  H        17.1387083318        8.3243215447       -8.8238831453
  H        17.9242643276        8.2417553130      -10.0788553337
  O         0.5926003658       14.3481636391       -9.5247549110
  H         1.4705048388       14.2286828782       -9.9956721947
  H         0.3542447090       13.3909781844       -9.6914489250
  O        23.2583270021        3.9512301191        3.2628962393
  H        22.9624604860        3.4014294370        2.5102391134
  H        22.7547679493        3.6110869369        3.9870939049
  O         8.4798225085        0.9488768009       -3.2373358386
  H         8.3201255242        0.8342830344       -2.2526673402
  H         9.4295986710        0.7920518070       -3.2798904306
  O        19.6918411803        3.7599970478       10.8673621975
  H        19.8807894103        2.8072721831       11.2089190862
  H        20.4451675229        4.1737459428       11.3528395700
  O         6.8041918071       21.1867292415        3.4107269271
  H         6.1401731555       21.2462121736        2.7159145348
  H         6.5221183918       21.8801274129        4.0629764974
  O         8.7986695288       22.2884176881       11.5121412753
  H         7.9970871243       21.9562195937       11.8737696582
  H         9.2438910701       22.6608278311       12.2793995374
  O        19.9065500870        0.2767014513       -6.0827985793
  H        20.5947415781        0.0525756843       -5.4380874014
  H        19.1944646133        0.5758847876       -5.4805851799
  O         6.4220427337       29.7029735747       -1.8720008866
  H         5.4585364709       -2.6291619791       -1.7164880465
  H         6.7280522222       -2.4379846166       -0.9305831606
  O         2.0896893218       23.1846714905      -13.3683953770
  H         2.7723344962       22.5014630377      -13.7064005542
  H         2.6673066713       23.9352674846      -13.2049762389
  O        -0.3926134412       -5.2774963857       -0.5390473004
  H        -0.2330642882       -6.2074206689       -0.7763316730
  H         0.3790665518       -4.8433380843       -1.0127885223
  O         9.8505684574        8.2033140358      -14.4836622046
  H        10.2673039104        8.0390924503      -15.3649403993
  H        10.0575067142        7.3827616250      -14.0168820302
  O        21.1417194692       -0.3397877553       -3.7151857845
  H        20.2107582898       -0.0525940315       -3.6811054116
  H        21.0291650844       -1.3097992885       -3.7705045704
  O        14.1644963910        7.5973773195       -2.3765729447
  H        13.6275412894        8.3732597204       -2.7434102384
  H        14.5371097275        8.0680356349       -1.5921611519
  O        14.9094809004        6.2889909186        8.6583378674
  H        14.3733839775        6.7226320847        9.2492011455
  H        14.4995950403        6.4225168713        7.7878798075
  O        26.7227304408       -2.4934354807        1.8918104756
  H        26.6055655136       30.3732119297        1.3892687841
  H        25.8256759931       -2.8356112476        1.7849830611
  O        -0.3155572242        2.9358641415       -0.2260134038
  H        -0.1337095576        2.2213248284       -0.8733453132
  H         0.1889397831        2.6028308798        0.5401791953
  O        22.5003029968       25.1050887335       -5.1784184149
  H        22.4238881733       24.8506506912       -6.1092750184
  H        23.4502328839       25.2006950128       -5.0820068402
  O         6.9069673968       -6.1577908761       -1.3984723072
  H         7.8538475917       -5.9915389771       -1.3879463981
  H         6.7764275401       -6.6814926964       -0.6329021960
  O         9.0192159568        5.5764497815        3.7139060392
  H         8.5508352959        6.0801790302        2.9956565356
  H         8.5001641595        5.9722955238        4.4722797031
  O        28.1571421468        1.1630738407        1.1473093123
  H        28.5804947830        1.9988979966        1.4337741597
  H        28.5015037236        0.5297377705        1.8095060924
  O        21.4890733576       10.7377035617        5.3032193096
  H        22.3258513121       10.3592766612        4.9736321043
  H        21.0043060903        9.9402726415        5.5610354130
  O         2.2475294688       12.0142124489        0.8997310697
  H         2.3896789022       12.9874435383        1.1865556728
  H         2.7316559603       11.6186325667        1.6735792696
  O         7.0131687873       16.6674593825       12.3963575465
  H         6.9469871335       16.3494456306       11.4694191760
  H         7.4462065483       15.9443383440       12.7987703060
  O         7.9782472047       26.0768958652       -6.7294392123
  H         8.6388042724       25.3398050018       -6.7796747672
  H         8.4363626126       26.7555874195       -7.3033088396
  O        29.1401215395       25.9564022958      -10.9962507455
  H        29.2739907693       25.1130870018      -11.4253456490
  H        -3.3831592384       25.6669402161      -10.2346238934
  O        -0.3038488158       26.2659607159       -5.1424194993
  H        -0.7040186016       26.2952886163       -6.0058788682
  H        -0.9951926185       25.7581692266       -4.6655126710
  O        -4.0803590637        3.5322224528        4.8270651863
  H        -3.6686060921        2.6683832163        5.0438012222
  H        -4.0600203423        3.5317328935        3.8697684607
  O        12.1851266810       -3.2914117458       -2.1351789051
  H        12.1796462564       -3.8422672908       -1.3717250429
  H        11.5683332358       -2.5914533300       -1.8382036777
  O        16.2293551656       24.5758462674      -11.4501028851
  H        16.8043372417       24.8443203736      -12.1545976598
  H        15.4636812162       25.1351648124      -11.5642523299
  O        13.1048274320        8.4026423161        3.0064603073
  H        12.6615199149        8.1262431389        2.1877168063
  H        13.8739370774        7.7591213164        2.9806823858
  O         2.1696116086       22.9376595691       11.4819242612
  H         1.3747529944       23.3455471572       11.9009553499
  H         1.6966390985       22.4793339535       10.7405875114
  O         8.3584286298       22.7178946758        7.4201621384
  H         9.1584783459       22.5662907374        7.9886639716
  H         8.3565278722       21.8699167580        6.9200807044
  O        24.5640352003        0.7256511398      -12.8163759924
  H        24.1107428083        1.2261524378      -13.5411980475
  H        23.7660083484        0.4093577543      -12.3453648288
  O         1.2792444599       16.3037798445       -7.3738136030
  H         0.3445246288       16.3901487970       -7.2595745914
  H         1.3779467957       16.4723372743       -8.3413169455
  O        20.9509767382       11.1639246740       -3.7547078945
  H        21.1363734052       11.6417888725       -2.9369894720
  H        20.5468132206       10.3571350908       -3.3704089931
  O        16.2864510835        1.3547393438      -13.0023564067
  H        16.0289842104        1.1290874459      -12.0749739111
  H        17.1980389984        0.9704572637      -13.0422495270
  O        23.1481226747        1.5378869831       -4.5574681798
  H        22.5529515690        0.8975198495       -4.1371435491
  H        23.9495051810        1.3694932615       -4.0062650229
  O        15.4178189371        3.6953957881       10.7706697496
  H        14.9686625960        2.8482394588       10.5371132685
  H        15.2804578819        4.2270953511        9.9907261335
  O        20.3838855824       22.7048712442       -8.1502327030
  H        20.9291876997       23.5390698506       -8.1536570511
  H        19.6770306485       22.9618229628       -8.8072160170
  O        19.2808779814       21.0230506439      -12.7448598895
  H        20.1524496782       20.6764369123      -12.4987047863
  H        18.6641883542       20.6374445761      -12.0693971085
  O        18.5987642702       21.9204188428       12.2710452084
  H        19.0385154058       21.5453204290       11.5170909961
  H        18.7039304594       22.8808913444       12.0698619111
  O        28.4990759371       14.7071202450       -0.4834740223
  H        28.0563946034       15.2467000461       -1.1571305625
  H        27.7115874154       14.2015192775       -0.2067953190
  O         7.4455471180       -0.4702922513      -10.3445977804
  H         8.0055955623       -0.6676472498      -11.1165868971
  H         6.5669152467       -0.6475299772      -10.7112158885
  O        -2.4214654884       17.4611295676        4.5761873244
  H        -3.2962311776       17.2369680800        4.9296775151
  H        -2.6016556495       18.0678612714        3.8442989633
  O        13.2682987528        2.8740770759        2.3667894051
  H        12.6594106823        3.4558199976        2.8941531139
  H        13.5987549875        3.4756081416        1.7154948506
  O         5.2169562039       12.3877705845       -1.6974506449
  H         4.7850352024       11.5697992780       -1.3323133881
  H         5.3065850516       12.1449253706       -2.6548826432
  O        20.2128747646       20.6350471115        7.8384384971
  H        20.3949122096       20.9806130260        6.9104988022
  H        20.0424199176       19.6833499439        7.6453264392
  O        11.7974921657        9.9861852923       -8.2413911994
  H        11.2095528871        9.3211106290       -8.7772424801