#     Step Nr.          Time[fs]        Kin.[a.u.]          Temp[K]            Pot.[a.u.]        Cons Qty[a.u.]        UsedTime[s]
         0            0.000000         0.896367083       300.000000000     -3605.583538832     -3604.686696726         0.000000000
         1            1.000000         0.913063626       305.588071065     -3605.605471611     -3604.691516013        62.261274227
         2            2.000000         0.938176883       313.993084191     -3605.628056707     -3604.688557527         9.099209087
         3            3.000000         0.957132322       320.337172265     -3605.644482472     -3604.685578542         8.351100621
         4            4.000000         0.963918425       322.608374313     -3605.649046722     -3604.682888537         8.847647611
         5            5.000000         0.968228256       324.050807316     -3605.652507610     -3604.681554191         8.386679697
         6            6.000000         0.976036851       326.664221421     -3605.660679480     -3604.681413284         7.262738684
         7            7.000000         0.985374924       329.789528162     -3605.669892278     -3604.680761863         8.510807361
         8            8.000000         0.998874735       334.307703104     -3605.684584734     -3604.681402385         7.208919289
         9            9.000000         1.004398127       336.156295621     -3605.691364726     -3604.682078913         8.429314054
        10           10.000000         0.994431798       332.820721579     -3605.679800335     -3604.679878495         7.271775831
        11           11.000000         0.992339009       332.120298082     -3605.677424217     -3604.678974555         8.450562118
        12           12.000000         1.011007827       338.368458634     -3605.699628337     -3604.681862123         7.403626254
        13           13.000000         1.028185557       344.117575103     -3605.720186136     -3604.684557048         8.531749298
        14           14.000000         1.028793065       344.320898638     -3605.723304296     -3604.686347172         7.292132894
        15           15.000000         1.010252398       338.115628219     -3605.707274428     -3604.688114630         8.489022590
        16           16.000000         0.979357537       327.775602945     -3605.673900172     -3604.684885539         7.254146058
        17           17.000000         0.973265873       325.736818452     -3605.668008753     -3604.684331867         8.897465154
        18           18.000000         0.994687680       332.906361287     -3605.692600192     -3604.686724788         7.218282023
        19           19.000000         1.006877853       336.986221132     -3605.704736645     -3604.685860428         8.389788159
        20           20.000000         1.004062710       336.044036770     -3605.701598828     -3604.684700216         7.281661596
        21           21.000000         1.001437741       335.165500887     -3605.700023223     -3604.684891658         8.421446119
        22           22.000000         1.013608907       339.238999172     -3605.714252195     -3604.686065096         7.462179892
        23           23.000000         1.041360716       348.527094293     -3605.745173768     -3604.688307627         8.420678686
        24           24.000000         1.065841312       356.720365806     -3605.771486035     -3604.689156940         7.319895978
        25           25.000000         1.067059446       357.128056037     -3605.771476028     -3604.686897801        10.674578398
        26           26.000000         1.047218700       350.487669618     -3605.748912358     -3604.683116648         7.256266036
        27           27.000000         1.028370456       344.179458188     -3605.727259686     -3604.679242148         8.390252864
        28           28.000000         1.034825496       346.339858605     -3605.734158987     -3604.678595818         7.302116736
        29           29.000000         1.060597825       354.965452928     -3605.762561972     -3604.680090796         8.475020455
        30           30.000000         1.077857185       360.741889900     -3605.782958463     -3604.682035769         7.299110807
        31           31.000000         1.067975459       357.434631040     -3605.773516773     -3604.681243561         8.961759264
        32           32.000000         1.051654764       351.972350541     -3605.756832635     -3604.679629869         7.262813793
        33           33.000000         1.054646762       352.973725571     -3605.761569121     -3604.680103016         8.983262113
        34           34.000000         1.071918825       358.754413776     -3605.780008243     -3604.679957707         7.242213042
        35           35.000000         1.081218984       361.867031309     -3605.791434240     -3604.680723299         8.436849901
        36           36.000000         1.060069051       354.788480417     -3605.769556669     -3604.678611311         7.287642953
        37           37.000000         1.025306266       343.153921791     -3605.732065064     -3604.674509079         8.472866240
        38           38.000000         1.020531169       341.555771812     -3605.727807591     -3604.673662386         7.396215252
        39           39.000000         1.049621842       351.291963499     -3605.761181037     -3604.676549706         8.814613533
        40           40.000000         1.074663815       359.673118868     -3605.788781065     -3604.677656133         7.274090423
        41           41.000000         1.074497537       359.617468459     -3605.789373183     -3604.676922158         8.846878863
        42           42.000000         1.058911683       354.401127628     -3605.773252847     -3604.674883951         7.733864981
        43           43.000000         1.053318509       352.529179996     -3605.767851714     -3604.673569554         8.429860951
        44           44.000000         1.067553553       357.293425867     -3605.785690009     -3604.675645105         7.324798747
        45           45.000000         1.075652568       360.004039189     -3605.795727927     -3604.676024054         8.416118423
        46           46.000000         1.066996985       357.107151355     -3605.787106603     -3604.674482741         7.227162835
        47           47.000000         1.055993303       353.424391528     -3605.776438704     -3604.673244874         8.784706951
        48           48.000000         1.057110817       353.798405829     -3605.779089330     -3604.673203058         7.340455428
        49           49.000000         1.068676423       357.669232929     -3605.793158162     -3604.674114743         8.410160942
        50           50.000000         1.078452657       360.941185069     -3605.805237936     -3604.674802890         7.249245511
        51           51.000000         1.074207823       359.520505626     -3605.802565667     -3604.674747829         8.925625631
        52           52.000000         1.058564485       354.284925844     -3605.786964927     -3604.673172530         7.236426078
        53           53.000000         1.046158293       350.132768028     -3605.776115882     -3604.673132709         9.144056778
        54           54.000000         1.038350962       347.519776769     -3605.770017413     -3604.673263961         7.322458523
        55           55.000000         1.030677718       344.951662516     -3605.763443451     -3604.672804649         8.455524295
        56           56.000000         1.025775777       343.311059791     -3605.759580157     -3604.672304354         7.255350957
        57           57.000000         1.024303320       342.818251505     -3605.759898810     -3604.672573641         8.364934510
        58           58.000000         1.023555897       342.568100635     -3605.759608700     -3604.671524497         7.320086523
        59           59.000000         1.030858489       345.012163730     -3605.768884077     -3604.672000589         8.528942775
        60           60.000000         1.040351090       348.189188164     -3605.780997320     -3604.673126252        10.763195819
        61           61.000000         1.040569635       348.262331858     -3605.781554489     -3604.671975731         8.408960767
        62           62.000000         1.040126408       348.113990683     -3605.782727913     -3604.672116596         7.308669734
        63           63.000000         1.033250642       345.812779882     -3605.778159834     -3604.672967629         8.413675047
        64           64.000000         1.014419765       339.510380762     -3605.759081260     -3604.671297208         7.312843259
        65           65.000000         1.001007736       335.021584869     -3605.746479265     -3604.670726496         8.865131930
        66           66.000000         1.005674456       336.583463061     -3605.753804395     -3604.672032283         7.308254556
        67           67.000000         1.018931371       341.020344237     -3605.772593469     -3604.676221073         8.512918555
        68           68.000000         1.028012730       344.059732802     -3605.788119549     -3604.681326256         7.204606215
        69           69.000000         1.032427795       345.537385623     -3605.794136299     -3604.681596052         9.045514666
        70           70.000000         1.032123002       345.435376288     -3605.790696249     -3604.677141491         7.756677100
        71           71.000000         1.030008073       344.727542779     -3605.787180159     -3604.674437473         8.458605430
        72           72.000000         1.032270260       345.484661260     -3605.791219760     -3604.674926768         7.231947282
        73           73.000000         1.028041040       344.069207822     -3605.788233533     -3604.674897005         8.481640707
        74           74.000000         1.013816539       339.308490202     -3605.774086838     -3604.673728005         7.339692964
        75           75.000000         1.001328697       335.129005641     -3605.763595866     -3604.674510990         8.377879825
        76           76.000000         0.999582891       334.544711502     -3605.764872800     -3604.676346706         7.238414454
        77           77.000000         1.006943444       337.008173372     -3605.774304064     -3604.677244968         8.963030370
        78           78.000000         1.012952636       339.019355477     -3605.781074534     -3604.676841757         7.248933807
        79           79.000000         1.015203042       339.772531160     -3605.784779425     -3604.677140686         8.575019930
        80           80.000000         1.007018956       337.033446050     -3605.776361939     -3604.675767614         7.228384749
        81           81.000000         0.994042456       332.690415102     -3605.760756488     -3604.672024114         8.438657262
        82           82.000000         1.000047011       334.700045389     -3605.767698542     -3604.671865442         7.675622137
        83           83.000000         1.016607038       340.242426552     -3605.786466941     -3604.672977807         8.381797913
        84           84.000000         1.021970163       342.037380333     -3605.792527829     -3604.672576298         7.336275984
        85           85.000000         1.017345751       340.489662231     -3605.788539553     -3604.672119380         8.428522178
        86           86.000000         1.016448595       340.189398069     -3605.789810971     -3604.673204349         7.249260266
        87           87.000000         1.023743874       342.631013509     -3605.799106921     -3604.674123811         8.837118818
        88           88.000000         1.040987897       348.402317524     -3605.818474179     -3604.675156212         7.318352575
        89           89.000000         1.055176800       353.151120878     -3605.835687774     -3604.677072572         8.484205699
        90           90.000000         1.042477599       348.900897484     -3605.821717761     -3604.674688596         7.270474262
        91           91.000000         1.018135248       340.753894519     -3605.794475354     -3604.670693002         8.364381622
        92           92.000000         1.016868873       340.330058509     -3605.794153829     -3604.670557850         7.294204319
        93           93.000000         1.033644891       345.944728754     -3605.813636275     -3604.672177735         8.479346548
        94           94.000000         1.042250016       348.824729183     -3605.824462949     -3604.673297257         7.706622112
        95           95.000000         1.033798711       345.996209741     -3605.817580688     -3604.673759910         8.348907080
        96           96.000000         1.019417251       341.182960640     -3605.802923122     -3604.672386451         7.420552548
        97           97.000000         1.019164126       341.098243779     -3605.803678597     -3604.672304567         8.505869068
        98           98.000000         1.035953057       346.717235639     -3605.824372988     -3604.675109149         7.219831084
        99           99.000000         1.036236297       346.812031677     -3605.825335868     -3604.674673807         8.402900349
       100          100.000000         1.015023694       339.712506251     -3605.801523035     -3604.670964601         7.303524076
       101          101.000000         0.998895641       334.314700031     -3605.787654703     -3604.672133916         8.392082641
       102          102.000000         0.999303009       334.451039485     -3605.794197756     -3604.677188863         7.275901648
       103          103.000000         1.011078683       338.392172925     -3605.807011279     -3604.677140059         8.410597694
       104          104.000000         1.016126519       340.081604429     -3605.808249645     -3604.672232880         7.332509751
       105          105.000000         1.006971674       337.017621373     -3605.797397044     -3604.669436326         8.462179037
       106          106.000000         1.003303616       335.789980082     -3605.794945134     -3604.669558423         7.338459036
       107          107.000000         1.015768912       339.961918904     -3605.812099459     -3604.673146485         8.795425303
       108          108.000000         1.021738120       341.959719083     -3605.822946626     -3604.676908710         7.661649647
       109          109.000000         1.010327722       338.140837880     -3605.815197071     -3604.679450738         8.400627475
       110          110.000000         1.004229337       336.099804276     -3605.808701624     -3604.677940089         7.573681132
       111          111.000000         1.010841366       338.312746501     -3605.810049220     -3604.671558202         8.477816773
       112          112.000000         1.020451708       341.529177410     -3605.818015666     -3604.668782716         7.286480135
       113          113.000000         1.021681375       341.940727411     -3605.818812624     -3604.667205098         9.108371695
       114          114.000000         1.019659714       341.264109213     -3605.816493081     -3604.665754824         7.209754699
       115          115.000000         1.026330827       343.496826214     -3605.825090074     -3604.666517652         8.480135584
       116          116.000000         1.037606944       347.270765519     -3605.839574565     -3604.668543077         7.271049913
       117          117.000000         1.037931826       347.379498631     -3605.843086029     -3604.670528058         8.372036627
       118          118.000000         1.028603328       344.257396636     -3605.833649421     -3604.669211419         7.212556795
       119          119.000000         1.027740894       343.968753440     -3605.832875078     -3604.668086381         8.430962053
       120          120.000000         1.031355214       345.178409609     -3605.836474375     -3604.666846279         7.282184204
       121          121.000000         1.029585244       344.586028654     -3605.832516124     -3604.663420902         8.427375786
       122          122.000000         1.031544567       345.241783350     -3605.834113292     -3604.661810722         7.323420051
       123          123.000000         1.039786850       348.000346005     -3605.843933251     -3604.662122786         8.410277855
       124          124.000000         1.046802579       350.348400511     -3605.851743006     -3604.661628721         7.411049479
       125          125.000000         1.050907216       351.722157951     -3605.857481726     -3604.661953109         8.806358075
       126          126.000000         1.047153626       350.465890369     -3605.855395246     -3604.662294870         7.244147911
       127          127.000000         1.037629987       347.278477906     -3605.845880666     -3604.660972572         8.488176561
       128          128.000000         1.037820314       347.342177204     -3605.847412681     -3604.660976394         7.248488307
       129          129.000000         1.041691955       348.637954815     -3605.853216050     -3604.661555413         8.321483362
       130          130.000000         1.032564142       345.583018891     -3605.845036734     -3604.661142197         7.267155878
       131          131.000000         1.013512923       339.206874758     -3605.825047111     -3604.658850460         8.419233373
       132          132.000000         1.012731745       338.945426765     -3605.825230899     -3604.658468789         7.622459657
       133          133.000000         1.031779688       345.320474441     -3605.848989002     -3604.661813917         8.342140434
       134          134.000000         1.037263927       347.155963147     -3605.855009594     -3604.660959266         7.252258454
       135          135.000000         1.025806636       343.321387814     -3605.843443142     -3604.659452577         8.987853744
       136          136.000000         1.014197689       339.436055342     -3605.831682145     -3604.657910488         7.233475488
       137          137.000000         1.019998378       341.377454891     -3605.838556829     -3604.657592558         8.401728831
       138          138.000000         1.041220528       348.480175444     -3605.863714250     -3604.660110359         7.323055830
       139          139.000000         1.045286789       349.841089267     -3605.869984747     -3604.660868842         8.438205909
       140          140.000000         1.023705445       342.618152037     -3605.846950691     -3604.657971288         7.261750494
       141          141.000000         1.009969343       338.020894190     -3605.833162477     -3604.656492082         8.433731324
       142          142.000000         1.023877265       342.675657426     -3605.850285889     -3604.658276162         7.273838472
       143          143.000000         1.044226244       349.486141612     -3605.873632730     -3604.659811822         8.395906348
       144          144.000000         1.045877387       350.038753069     -3605.876297565     -3604.659337269         7.245013667
       145          145.000000         1.030812355       344.996723181     -3605.860718021     -3604.657333483         8.374536509
       146          146.000000         1.025275362       343.143578715     -3605.856262464     -3604.656932876         7.295567364
       147          147.000000         1.036561255       346.920790003     -3605.870255302     -3604.658147360         9.327006772
       148          148.000000         1.044781024       349.671817791     -3605.881227868     -3604.659385466         7.264576339
       149          149.000000         1.033483101       345.890580182     -3605.869761713     -3604.657695558         8.379044197
       150          150.000000         1.021788967       341.976736916     -3605.857823612     -3604.655939920         7.261249694
       151          151.000000         1.027068824       343.743822355     -3605.866843282     -3604.658168367         8.426360030
       152          152.000000         1.031760281       345.313979214     -3605.874495623     -3604.659605623         7.250408633
       153          153.000000         1.025720722       343.292633735     -3605.871010392     -3604.660631869         8.410370620
       154          154.000000         1.021095628       341.744687198     -3605.871401672     -3604.664123908         7.277918450
       155          155.000000         1.028383023       344.183664059     -3605.882871556     -3604.666776848         8.699935962
       156          156.000000         1.037207529       347.137087654     -3605.890609084     -3604.664143863         7.189424957
       157          157.000000         1.031695358       345.292250541     -3605.882848949     -3604.660341637         8.467125706
       158          158.000000         1.020617937       341.584811437     -3605.871711362     -3604.658735164         7.711122586
       159          159.000000         1.022164225       342.102329891     -3605.874970578     -3604.658906667         8.392262111
       160          160.000000         1.035060961       346.418665234     -3605.894122980     -3604.663607535         7.246910808
       161          161.000000         1.033079333       345.755445171     -3605.900468816     -3604.670367451         8.421246511
       162          162.000000         1.017182753       340.435109199     -3605.887705301     -3604.671942671         7.634353471
       163          163.000000         1.013312264       339.139717492     -3605.882357208     -3604.668921437         8.386940611
       164          164.000000         1.021145541       341.761392186     -3605.890397382     -3604.667581885         7.265751475
       165          165.000000         1.022590792       342.245095058     -3605.891046977     -3604.665231753         8.469240167
       166          166.000000         1.018679095       340.935911657     -3605.885994289     -3604.662536942         7.702890294
       167          167.000000         1.015217577       339.777395906     -3605.882562053     -3604.661017611         8.394793971
       168          168.000000         1.014828562       339.647198476     -3605.884079906     -3604.661379174         7.556407205
       169          169.000000         1.023597288       342.581953532     -3605.896732742     -3604.663711940         8.453525328
       170          170.000000         1.037913288       347.373294342     -3605.913042899     -3604.664135668         7.244397766
       171          171.000000         1.039727768       347.980572281     -3605.916717881     -3604.664409246         8.822795508
       172          172.000000         1.032397922       345.527387702     -3605.909781360     -3604.663215272         7.254837413
       173          173.000000         1.036896828       347.033101130     -3605.915286687     -3604.662633171         8.789487523
       174          174.000000         1.053065139       352.444381168     -3605.932942311     -3604.662511735         7.274514518
       175          175.000000         1.061263626       355.188285895     -3605.941371647     -3604.661107606         8.374163509
       176          176.000000         1.052060655       352.108196138     -3605.931196417     -3604.658492241         7.261113510
       177          177.000000         1.039304602       347.838945098     -3605.917067793     -3604.655486765         8.424862543
       178          178.000000         1.045023084       349.752831218     -3605.924962324     -3604.656031028         7.232009352
       179          179.000000         1.057436963       353.907562052     -3605.940895517     -3604.657899111         8.352464652
       180          180.000000         1.056651147       353.644561689     -3605.941923645     -3604.658045287         7.295238668
       181          181.000000         1.047812860       350.686525693     -3605.934364897     -3604.657657523         8.418337327
       182          182.000000         1.046079002       350.106230475     -3605.934145790     -3604.657508059         7.276016298
       183          183.000000         1.053414612       352.561344050     -3605.943164742     -3604.657517950         8.348091098
       184          184.000000         1.056401928       353.561151816     -3605.947036891     -3604.656715165         7.327515883
       185          185.000000         1.042804920       349.010446680     -3605.932755087     -3604.654345197         8.809239325
       186          186.000000         1.022282943       342.142062923     -3605.911785535     -3604.652236909         7.211599304
       187          187.000000         1.009072124       337.720609143     -3605.900600231     -3604.652630293         8.421853445
       188          188.000000         0.997527073       333.856661698     -3605.891388290     -3604.653355726         7.307951960
       189          189.000000         0.982285952       328.755697599     -3605.877272859     -3604.652902333         8.369740102
       190          190.000000         0.975771126       326.575287397     -3605.873292802     -3604.653885288         7.213803991
       191          191.000000         0.980976011       328.317280926     -3605.881249103     -3604.655096971         8.838225194
       192          192.000000         0.992016721       332.012433141     -3605.894397257     -3604.655661800         7.252440623
       193          193.000000         0.997280043       333.773984704     -3605.900725485     -3604.655178951         8.422112094
       194          194.000000         0.991648947       331.889345191     -3605.893952048     -3604.652495510         7.219367147
       195          195.000000         0.989798901       331.270163803     -3605.891970776     -3604.650835942         8.428916509
       196          196.000000         0.999932072       334.661577088     -3605.904908475     -3604.652112668         7.281584459
       197          197.000000         1.002656453       335.573384690     -3605.910402584     -3604.653349715         8.409676863
       198          198.000000         0.986731026       330.243394113     -3605.894579810     -3604.651934233         7.241665365
       199          199.000000         0.972938920       325.627392481     -3605.881694641     -3604.651352759         8.748605091
       200          200.000000         0.979158047       327.708836827     -3605.890748215     -3604.652713791         7.284788967
       201          201.000000         0.996744555       333.594765005     -3605.910399817     -3604.653295379         8.428688741
       202          202.000000         1.008641954       337.576637984     -3605.923582097     -3604.653078847         7.268689554
       203          203.000000         1.000688058       334.914593778     -3605.914327719     -3604.650275735         8.503377427
       204          204.000000         0.988957031       330.988403033     -3605.900756133     -3604.646950083         7.329726567
       205          205.000000         0.998851384       334.299887729     -3605.912918467     -3604.647738806         8.395935610
       206          206.000000         1.016707448       340.276032287     -3605.935025529     -3604.650492314         7.243500700
       207          207.000000         1.009628892       337.906950499     -3605.929653092     -3604.650692074        11.999498864
       208          208.000000         0.978534986       327.500308025     -3605.898205160     -3604.648860588         7.276385169
       209          209.000000         0.961905237       321.934591854     -3605.881866966     -3604.647716121         8.412027999
       210          210.000000         0.982945968       328.976594426     -3605.907431532     -3604.650809364         7.371792179
       211          211.000000         1.006682688       336.920902457     -3605.934447050     -3604.652629477         8.418047160
       212          212.000000         1.005460025       336.511696050     -3605.931985641     -3604.649915676         7.283205423
       213          213.000000         0.994048063       332.692291543     -3605.919031168     -3604.646907189         8.417105398
       214          214.000000         0.997857765       333.967339158     -3605.923590211     -3604.646197590         7.269380326
       215          215.000000         1.015825317       339.980796833     -3605.945562869     -3604.648728257         8.439675201
       216          216.000000         1.019706636       341.279813301     -3605.952905615     -3604.650696292         7.217137785
       217          217.000000         0.995475107       333.169900757     -3605.930162641     -3604.650702896         8.379717539
       218          218.000000         0.965947141       323.287353667     -3605.900889411     -3604.649516350         7.269538884
       219          219.000000         0.963823742       322.576685569     -3605.901796741     -3604.651135477         8.414035004
       220          220.000000         0.983498572       329.161542460     -3605.926006820     -3604.654253131         7.227401157
       221          221.000000         0.988590366       330.865686140     -3605.931625178     -3604.653347429         8.742853291
       222          222.000000         0.976868931       326.942705605     -3605.917617674     -3604.649636023         7.713282765
       223          223.000000         0.972320224       325.420324848     -3605.912917401     -3604.648074725         8.424777293
       224          224.000000         0.981150359       328.375632233     -3605.923499162     -3604.648417952         7.275937839
       225          225.000000         0.991842883       331.954252299     -3605.936400579     -3604.649207007         8.410818063
       226          226.000000         0.990102792       331.371871103     -3605.939227840     -3604.652348593         7.299407556
       227          227.000000         0.970405880       324.779623832     -3605.924494909     -3604.655903123         8.385828213