#     Step Nr.          Time[fs]        Kin.[a.u.]          Temp[K]            Pot.[a.u.]        Cons Qty[a.u.]        UsedTime[s]
         0            0.000000         3.847680642       300.000000000     -1470.536262883     -1466.688107218         0.000000000
         1            1.000000         3.817422025       297.640764433     -1470.484340661     -1466.665592684        53.912741679
         2            2.000000         3.812302624       297.241609587     -1470.494360011     -1466.679889759        13.161694286
         3            3.000000         3.796918724       296.042141556     -1470.478553675     -1466.678635098        13.161758580
         4            4.000000         3.791566882       295.624863515     -1470.485215754     -1466.689828772        13.197834707
         5            5.000000         3.856629914       300.697766233     -1470.571568537     -1466.710301176        13.164990488
         6            6.000000         3.807493364       296.866636130     -1470.505656451     -1466.692707570        12.493037696
         7            7.000000         3.773965670       294.252513749     -1470.466967132     -1466.686744151        12.487720340
         8            8.000000         3.824506918       298.193166746     -1470.532520148     -1466.700964758        12.457400738
         9            9.000000         3.812653813       297.268991431     -1470.514869859     -1466.694378425        12.472718544
        10           10.000000         3.821172508       297.933186007     -1470.535435155     -1466.705642570        12.476241681
        11           11.000000         3.779493341       294.683500984     -1470.482007581     -1466.693121459        12.481885646
        12           12.000000         3.742694671       291.814343705     -1470.431192538     -1466.678353445        12.529470878
        13           13.000000         3.827968633       298.463073372     -1470.549099543     -1466.710247580        12.458394559
        14           14.000000         3.828180109       298.479561991     -1470.542971380     -1466.703166545        12.475888573
        15           15.000000         3.815562282       297.495761992     -1470.523862800     -1466.695939623        12.500962388
        16           16.000000         3.853103892       300.422845651     -1470.583089236     -1466.716890851        12.480090653
        17           17.000000         3.847942883       300.020446704     -1470.563234663     -1466.701460371        12.503269659
        18           18.000000         3.887962149       303.140710756     -1470.617206223     -1466.714670995        12.522250663
        19           19.000000         3.851181231       300.272937620     -1470.554321711     -1466.687819016        12.503452123
        20           20.000000         3.777638773       294.538902082     -1470.466835800     -1466.673137784        12.451358073
        21           21.000000         3.844576199       299.757949528     -1470.554955479     -1466.693593046        12.517229180
        22           22.000000         3.872360741       301.924283828     -1470.583179446     -1466.693297735        12.460529728
        23           23.000000         3.867367857       301.534993420     -1470.562722610     -1466.677092420        13.208314020
        24           24.000000         3.855969753       300.646294105     -1470.562018053     -1466.687042044        13.205166715
        25           25.000000         3.798486978       296.164416828     -1470.486014507     -1466.667783114        12.535459604
        26           26.000000         3.854098176       300.500368978     -1470.566189875     -1466.691615919        12.503378088
        27           27.000000         3.861257371       301.058564652     -1470.578600830     -1466.696129837        12.502022177
        28           28.000000         3.778195297       294.582293712     -1470.478773818     -1466.678633433        12.458798544
        29           29.000000         3.783677935       295.009769806     -1470.495928340     -1466.689592349        12.472396510
        30           30.000000         3.804708770       296.649523998     -1470.504440313     -1466.676369822        12.489555626
        31           31.000000         3.865489879       301.388569230     -1470.572763694     -1466.683207952        12.504001826
        32           32.000000         3.875911398       302.201125185     -1470.592646202     -1466.691955449        12.505916190
        33           33.000000         3.776123505       294.420758062     -1470.479180515     -1466.677569006        12.490142514
        34           34.000000         3.785431313       295.146479022     -1470.501786172     -1466.690177457        12.508017364
        35           35.000000         3.814543347       297.416316636     -1470.537757657     -1466.696355277        12.429833966
        36           36.000000         3.795354611       295.920189098     -1470.515763837     -1466.692874844        12.314826822
        37           37.000000         3.797678692       296.101395502     -1470.526359921     -1466.700482215        12.353211116
        38           38.000000         3.751881058       292.530597523     -1470.455721505     -1466.674990980        12.347677819
        39           39.000000         3.796596948       296.017052942     -1470.507926043     -1466.681845274        12.366732212
        40           40.000000         3.860888373       301.029794225     -1470.591050416     -1466.700043734        12.312018443
        41           41.000000         3.774840484       294.320722186     -1470.481127963     -1466.675536911        12.333056863
        42           42.000000         3.753093567       292.625135735     -1470.463127504     -1466.678672040        12.322084149
        43           43.000000         3.784298038       295.058118616     -1470.497209824     -1466.680954360        12.336119474
        44           44.000000         3.822069244       298.003103618     -1470.519489507     -1466.664873505        12.319251013
        45           45.000000         3.875675327       302.182718980     -1470.590478351     -1466.681663822        12.324282800
        46           46.000000         3.808869836       296.973958365     -1470.504074112     -1466.661470284        12.342493495
        47           47.000000         3.797122219       296.058007819     -1470.489152874     -1466.657713456        12.308360294
        48           48.000000         3.860002465       300.960720787     -1470.570261718     -1466.675362305        12.505715473
        49           49.000000         3.833154084       298.867378069     -1470.527341470     -1466.658706865        12.531751035
        50           50.000000         3.809648216       297.034647900     -1470.501957234     -1466.656250642        12.508121445
        51           51.000000         3.775948748       294.407132470     -1470.470281793     -1466.657707961        12.561626437
        52           52.000000         3.805874259       296.740396110     -1470.494830514     -1466.651776392        12.514412806
        53           53.000000         3.912282379       305.036935960     -1470.632884956     -1466.682863428        12.519239670
        54           54.000000         3.870384803       301.770221855     -1470.563577545     -1466.654879310        12.516061200
        55           55.000000         3.813133831       297.306418023     -1470.493227428     -1466.641207965        13.214866383
        56           56.000000         3.823066914       298.080891040     -1470.521068609     -1466.658551478        12.527031339
        57           57.000000         3.821122194       297.929263032     -1470.502641752     -1466.641508218        12.552638503
        58           58.000000         3.862848658       301.182635788     -1470.553802840     -1466.650381844        12.532530505
        59           59.000000         3.819153560       297.775770554     -1470.495766741     -1466.635477889        12.480359094
        60           60.000000         3.787177199       295.282604126     -1470.451714060     -1466.622848271        12.487004373
        61           61.000000         3.885172192       302.923180520     -1470.585601458     -1466.658190147        12.497377384
        62           62.000000         3.901579343       304.202430450     -1470.593433456     -1466.649049401        12.529612185
        63           63.000000         3.875809046       302.193144871     -1470.567600266     -1466.648410395        12.545427711
        64           64.000000         3.849029625       300.105178890     -1470.568748609     -1466.675758872        12.507930748
        65           65.000000         3.829953474       298.617829597     -1470.530058570     -1466.655567187        12.474910629
        66           66.000000         3.927324530       306.209758215     -1470.646100796     -1466.673653743        12.504331937
        67           67.000000         3.942717659       307.409945791     -1470.662692260     -1466.674243161        12.461971756
        68           68.000000         3.882567812       302.720119444     -1470.578631049     -1466.649707260        12.496545705
        69           69.000000         3.919573421       305.605411622     -1470.629186694     -1466.662623236        12.550143189
        70           70.000000         3.933150436       306.663998523     -1470.634360240     -1466.653565647        12.497052835
        71           71.000000         3.958508438       308.641137828     -1470.671086590     -1466.664256804        12.499518065
        72           72.000000         3.941734594       307.333297183     -1470.673393070     -1466.682635460        12.495448976
        73           73.000000         3.860224978       300.978069926     -1470.562357080     -1466.652396559        12.523948061
        74           74.000000         3.920200505       305.654304736     -1470.642523031     -1466.671868002        12.534821694
        75           75.000000         3.957508222       308.563151954     -1470.682882588     -1466.674175243        12.500172246
        76           76.000000         3.917456278       305.440339929     -1470.631611870     -1466.662189220        12.523692587
        77           77.000000         3.903724536       304.369689098     -1470.633685946     -1466.677215610        12.583702420
        78           78.000000         3.853926911       300.487015643     -1470.566664788     -1466.659205986        12.507893430
        79           79.000000         3.881166640       302.610871401     -1470.622257833     -1466.686769618        12.506000724
        80           80.000000         3.898183684       303.937674134     -1470.650334110     -1466.697025396        13.239794625
        81           81.000000         3.812597124       297.264571468     -1470.546578709     -1466.678049865        12.548281864
        82           82.000000         3.819749924       297.822268506     -1470.566538192     -1466.690059910        12.490930454
        83           83.000000         3.841368007       299.507809870     -1470.579772773     -1466.680879133        12.483709305
        84           84.000000         3.839726182       299.379798331     -1470.575164896     -1466.677112696        12.494025234
        85           85.000000         3.840932875       299.473883056     -1470.578215141     -1466.678154515        12.519250176
        86           86.000000         3.756435850       292.885730356     -1470.478120439     -1466.661764315        12.513905992
        87           87.000000         3.769784694       293.926526989     -1470.504679924     -1466.674202439        12.515552556
        88           88.000000         3.824457585       298.189320351     -1470.582381223     -1466.696462797        12.563248738
        89           89.000000         3.769007313       293.865915395     -1470.510540803     -1466.679309036        12.503734586
        90           90.000000         3.764582903       293.520948324     -1470.510127514     -1466.682573824        12.536603698
        91           91.000000         3.765890568       293.622905698     -1470.518040554     -1466.688446407        12.531677695
        92           92.000000         3.791419233       295.613351443     -1470.540224811     -1466.684379175        12.526405955
        93           93.000000         3.849333392       300.128863333     -1470.620186361     -1466.705703196        12.508477849
        94           94.000000         3.779477166       294.682239859     -1470.529592169     -1466.684242856        12.504572828
        95           95.000000         3.754779622       292.756595842     -1470.501352730     -1466.679996835        12.546321984
        96           96.000000         3.805242282       296.691121421     -1470.580594343     -1466.708082731        12.499294505
        97           97.000000         3.804682481       296.647474289     -1470.570078834     -1466.697436044        12.497735181
        98           98.000000         3.819985502       297.840636250     -1470.585436940     -1466.696803926        12.498676343
        99           99.000000         3.772764604       294.158867787     -1470.535423606     -1466.693331122        12.552459644
       100          100.000000         3.764514809       293.515639062     -1470.498727176     -1466.664219786        12.477744692
       101          101.000000         3.852396764       300.367711521     -1470.607627852     -1466.684577819        12.498297113
       102          102.000000         3.825086715       298.238373031     -1470.597609007     -1466.701201877        12.540455387
       103          103.000000         3.799433368       296.238205946     -1470.540313038     -1466.668897984        12.493051623
       104          104.000000         3.813145368       297.307317564     -1470.576810876     -1466.691028970        13.203534523
       105          105.000000         3.820285914       297.864059072     -1470.572579823     -1466.679004501        12.503090718
       106          106.000000         3.890524792       303.340517611     -1470.669080898     -1466.704607790        12.557106058
       107          107.000000         3.856555975       300.692001237     -1470.624386620     -1466.693210924        12.538351394
       108          108.000000         3.798426795       296.159724390     -1470.513467969     -1466.639753377        12.503612629
       109          109.000000         3.853182330       300.428961409     -1470.588219744     -1466.659085291        12.524570770
       110          110.000000         3.863192138       301.209416601     -1470.605349109     -1466.665531288        13.228882182
       111          111.000000         3.870468085       301.776715216     -1470.592230299     -1466.644454688        13.197482000
       112          112.000000         3.864680130       301.325433881     -1470.590139628     -1466.647461913        13.243629943
       113          113.000000         3.841328242       299.504709413     -1470.579595616     -1466.659575441        12.472218296
       114          114.000000         3.909151512       304.792825255     -1470.672073249     -1466.683526361        12.488204218
       115          115.000000         3.906154319       304.559136964     -1470.688652695     -1466.702378806        12.465077043
       116          116.000000         3.849827061       300.167354242     -1470.597922895     -1466.667242808        12.491146412
       117          117.000000         3.864693070       301.326442820     -1470.601590075     -1466.655307770        12.480310289
       118          118.000000         3.855626831       300.619556826     -1470.582181799     -1466.644221612        12.487100940
       119          119.000000         3.889819929       303.285560097     -1470.629825310     -1466.656918105        12.471643890
       120          120.000000         3.890004017       303.299913302     -1470.608183893     -1466.634322855        12.473736376
       121          121.000000         3.833304762       298.879126334     -1470.531655740     -1466.613717807        13.230447243
       122          122.000000         3.893721027       303.589725009     -1470.609390141     -1466.630254268        13.212683630
       123          123.000000         3.927835974       306.249635012     -1470.646025264     -1466.631969254        12.516737848
       124          124.000000         3.913497778       305.131699517     -1470.621931475     -1466.621385904        12.483276678
       125          125.000000         3.922129069       305.804673028     -1470.646628056     -1466.636604376        12.483228409
       126          126.000000         3.891685565       303.431021972     -1470.606398568     -1466.625953977        12.525307371
       127          127.000000         3.926761256       306.165840276     -1470.675234047     -1466.658832146        12.473383117
       128          128.000000         3.938567879       307.086391393     -1470.696271899     -1466.667154634        12.488874666
       129          129.000000         3.868293545       301.607168408     -1470.589106232     -1466.629338544        12.528843737
       130          130.000000         3.880116397       302.528984943     -1470.607824689     -1466.635303456        12.468327665
       131          131.000000         3.892593134       303.501784286     -1470.629206872     -1466.643261951        12.523541698
       132          132.000000         3.889256860       303.241658153     -1470.621681501     -1466.638109173        12.481718426
       133          133.000000         3.878820915       302.427977446     -1470.623369355     -1466.649255686        12.488158659
       134          134.000000         3.803363648       296.544646143     -1470.544367613     -1466.644732967        12.514312361
       135          135.000000         3.821650574       297.970460312     -1470.552190734     -1466.633297423        12.516413257
       136          136.000000         3.869684557       301.715624307     -1470.616830798     -1466.648920414        12.490755572
       137          137.000000         3.835072806       299.016978976     -1470.568224035     -1466.633930819        12.507038129
       138          138.000000         3.828427169       298.498825023     -1470.563985631     -1466.635343062        12.485267483
       139          139.000000         3.820540660       297.883921406     -1470.559368646     -1466.637615731        12.465405660
       140          140.000000         3.846420733       299.901766113     -1470.585125056     -1466.636489724        12.450221173
       141          141.000000         3.894099301       303.619218712     -1470.651740918     -1466.654406875        12.474109420
       142          142.000000         3.841606857       299.526432758     -1470.599178282     -1466.653302386        12.507468467
       143          143.000000         3.822541700       298.039940595     -1470.580414243     -1466.652571052        12.458396672
       144          144.000000         3.859139788       300.893458728     -1470.622566167     -1466.657085501        12.466341206
       145          145.000000         3.880700916       302.574559372     -1470.639532584     -1466.651433246        12.512975598
       146          146.000000         3.909149401       304.792660662     -1470.685509985     -1466.667882357        12.475971125
       147          147.000000         3.860526111       301.001548988     -1470.627298485     -1466.657197985        12.473536828
       148          148.000000         3.842841411       299.622689763     -1470.607145699     -1466.653630906        12.453907437
       149          149.000000         3.887859894       303.132738052     -1470.683811506     -1466.684165740        12.509294544
       150          150.000000         3.850825963       300.245237686     -1470.618069669     -1466.654329097        12.532716657
       151          151.000000         3.829943088       298.617019787     -1470.600708791     -1466.656720579        12.514829278
       152          152.000000         3.828207842       298.481724301     -1470.604026938     -1466.660640586        12.488060852
       153          153.000000         3.839320708       299.348183891     -1470.588285933     -1466.632646165        12.539941242
       154          154.000000         3.894490484       303.649718881     -1470.658852479     -1466.646883581        12.482721859
       155          155.000000         3.861363391       301.066830955     -1470.626017846     -1466.645996561        12.513173142
       156          156.000000         3.817404627       297.639407926     -1470.572891150     -1466.635648706        12.529769002
       157          157.000000         3.846231436       299.887006749     -1470.614609893     -1466.647357478        12.479949376
       158          158.000000         3.857906338       300.797287784     -1470.617672952     -1466.637547060        12.525152618
       159          159.000000         3.867511409       301.546186047     -1470.631197167     -1466.640252307        12.509062931
       160          160.000000         3.849081329       300.109210262     -1470.614900984     -1466.641160323        12.466399743
       161          161.000000         3.827462041       298.423574873     -1470.588946717     -1466.635595473        12.502738149
       162          162.000000         3.876095526       302.215481458     -1470.646433683     -1466.643206762        12.487459966
       163          163.000000         3.871157095       301.830436704     -1470.639371202     -1466.639818722        12.479272447
       164          164.000000         3.827542349       298.429836472     -1470.593041192     -1466.635833229        12.498826743
       165          165.000000         3.822065556       298.002816130     -1470.583539677     -1466.630538972        12.533646859
       166          166.000000         3.824773541       298.213955108     -1470.583371095     -1466.626387747        12.488475251
       167          167.000000         3.867501365       301.545402925     -1470.639187553     -1466.638187158        12.495543071
       168          168.000000         3.869214911       301.679006459     -1470.650172568     -1466.646148348        12.497266324
       169          169.000000         3.833684194       298.908710289     -1470.588807357     -1466.618995233        12.485705561
       170          170.000000         3.865675640       301.403052886     -1470.629558825     -1466.626427577        12.489735154
       171          171.000000         3.876678873       302.260964484     -1470.669872336     -1466.654388825        12.525675877
       172          172.000000         3.858592776       300.850808663     -1470.638188666     -1466.639427461        13.237763050
       173          173.000000         3.837042411       299.170547213     -1470.624818576     -1466.646237931        12.486944947
       174          174.000000         3.810062570       297.066954682     -1470.587405547     -1466.634434972        12.477008787
       175          175.000000         3.860358894       300.988511242     -1470.648849807     -1466.644203659        12.496651777
       176          176.000000         3.879795795       302.503987900     -1470.667705717     -1466.642218169        12.461074257
       177          177.000000         3.834904400       299.003848579     -1470.610160347     -1466.628148589        12.497294609
       178          178.000000         3.841680191       299.532150508     -1470.634727776     -1466.644521985        12.467723860
       179          179.000000         3.852180135       300.350821200     -1470.649427564     -1466.647290638        12.522469316
       180          180.000000         3.867970405       301.581973542     -1470.667620652     -1466.648245476        12.472949835
       181          181.000000         3.853594607       300.461106242     -1470.669238948     -1466.662777184        12.472230745
       182          182.000000         3.792515254       295.698807127     -1470.593792130     -1466.646950923        12.469750219
       183          183.000000         3.820219566       297.858885998     -1470.612705498     -1466.636705703        12.498051138
       184          184.000000         3.873846095       302.040095503     -1470.679750300     -1466.648648454        12.478095442
       185          185.000000         3.859707583       300.937729181     -1470.665702630     -1466.647242161        12.461982826
       186          186.000000         3.833581444       298.900698959     -1470.658766437     -1466.664930274        12.467382121
       187          187.000000         3.808739785       296.963818416     -1470.636466705     -1466.665972865        12.502792318
       188          188.000000         3.846554629       299.912205812     -1470.675992428     -1466.666177951        12.453115853
       189          189.000000         3.899291172       304.024023963     -1470.726148425     -1466.662063569        12.513221836
       190          190.000000         3.851618742       300.307049909     -1470.662841247     -1466.644876196        12.495467632
       191          191.000000         3.818697246       297.740192176     -1470.652274151     -1466.665683199        12.485998147
       192          192.000000         3.843883182       299.703915661     -1470.693946725     -1466.680618747        12.496529496
       193          193.000000         3.872936283       301.969158296     -1470.694969084     -1466.651017152        12.473029418
       194          194.000000         3.883901664       302.824118624     -1470.720218563     -1466.663708304        12.503827848
       195          195.000000         3.822466820       298.034102300     -1470.662433871     -1466.665761370        12.484896828
       196          196.000000         3.801960283       296.435227117     -1470.650109821     -1466.672358937        12.493564940
       197          197.000000         3.858241452       300.823416306     -1470.718598271     -1466.682972480        13.170515957
       198          198.000000         3.871773804       301.878520910     -1470.724566472     -1466.673790641        12.508615965
       199          199.000000         3.862794823       301.178438271     -1470.717427898     -1466.673999991        12.495680288
       200          200.000000         3.839049726       299.327055643     -1470.703760063     -1466.682442578        12.513812594
       201          201.000000         3.848193093       300.039955331     -1470.710914441     -1466.678815338        12.891024930
       202          202.000000         3.902467721       304.271696396     -1470.786147364     -1466.698113278        12.490372759
       203          203.000000         3.870986327       301.817122073     -1470.751063186     -1466.692829336        12.469468863
       204          204.000000         3.818965260       297.761088945     -1470.691288851     -1466.683402146        12.469753813
       205          205.000000         3.825820940       298.295619785     -1470.686881426     -1466.670472898        13.225650283
       206          206.000000         3.846739721       299.926637301     -1470.707668642     -1466.668667216        13.184794628
       207          207.000000         3.871443018       301.852729876     -1470.750653539     -1466.685259257        13.187703263
       208          208.000000         3.833750141       298.913852046     -1470.730887562     -1466.701491074        13.222403228
       209          209.000000         3.796027680       295.972667645     -1470.685918431     -1466.692563929        12.492798783
       210          210.000000         3.839560720       299.366897369     -1470.709669043     -1466.671103669        12.506251733
       211          211.000000         3.850101563       300.188756917     -1470.727457593     -1466.676660196        12.497438943
       212          212.000000         3.809620258       297.032468091     -1470.719426986     -1466.707423623        12.506611168
       213          213.000000         3.771162161       294.033926796     -1470.684625773     -1466.709415075        12.497949105
       214          214.000000         3.756334166       292.877802152     -1470.652414534     -1466.690389982        12.528692579
       215          215.000000         3.801778784       296.421075776     -1470.713448476     -1466.704345191        12.480678481
       216          216.000000         3.804826960       296.658739195     -1470.707676020     -1466.693888420        12.525227896
       217          217.000000         3.745108363       292.002536959     -1470.638601115     -1466.682916884        12.507013738
       218          218.000000         3.746566688       292.116241206     -1470.649968951     -1466.691241371        12.536190973
       219          219.000000         3.778881442       294.635791814     -1470.687666850     -1466.695051029        12.540562067
       220          220.000000         3.798696015       296.180715210     -1470.709856537     -1466.695855648        12.519165309
       221          221.000000         3.787668127       295.320881298     -1470.700099699     -1466.695565223        12.506337968
       222          222.000000         3.747444088       292.184651219     -1470.648790477     -1466.682942383        12.531274301
       223          223.000000         3.773898035       294.247240284     -1470.690181137     -1466.696363433        12.499177760
       224          224.000000         3.810635945       297.111660216     -1470.734807640     -1466.702739468        12.486464358
       225          225.000000         3.792731520       295.715669203     -1470.684126586     -1466.668457082        12.476254405
       226          226.000000         3.771829111       294.085928248     -1470.651409303     -1466.655157248        12.526076983
       227          227.000000         3.764059030       293.480102472     -1470.640822777     -1466.650878574        12.498465584