#     Step Nr.          Time[fs]        Kin.[a.u.]          Temp[K]            Pot.[a.u.]        Cons Qty[a.u.]        UsedTime[s]
         0            0.000000         3.843405441       300.000000000     -1268.392618235     -1264.548737771         0.000000000
         1            1.000000         3.880116645       302.865521579     -1268.457397267     -1264.575946024        47.180351883
         2            2.000000         3.854984897       300.903843387     -1268.400623343     -1264.543437106        12.589884005
         3            3.000000         3.805599875       297.049057105     -1268.296667718     -1264.488006344        12.007070150
         4            4.000000         4.087654448       319.065046118     -1268.618239761     -1264.526636542        12.005242944
         5            5.000000         3.865901243       301.755927293     -1268.336458702     -1264.465677460        12.599854141
         6            6.000000         3.708152066       289.442692622     -1268.157954948     -1264.444029796        11.994847506
         7            7.000000         3.852480064       300.708326706     -1268.378760328     -1264.519634936        11.999878641
         8            8.000000         3.751742460       292.845174704     -1268.198622087     -1264.439361183        11.987487011
         9            9.000000         3.892976990       303.869345808     -1268.407747194     -1264.506386235        12.014375567
        10           10.000000         3.782893144       295.276665541     -1268.286249062     -1264.494099237        11.976607457
        11           11.000000         3.593388501       280.484733328     -1267.987547408     -1264.384076897        12.011717983
        12           12.000000         3.888576204       303.525839014     -1268.388782310     -1264.489324195        11.978675775
        13           13.000000         3.799816896       296.597662219     -1268.245630142     -1264.434109715        11.961558428
        14           14.000000         3.706459724       289.310595581     -1268.103536093     -1264.384579228        11.984449793
        15           15.000000         3.748287091       292.575463234     -1268.198103157     -1264.436554105        11.968055956
        16           16.000000         3.596714618       280.744356009     -1267.955310219     -1264.344602641        11.995312825
        17           17.000000         3.861506788       301.412914657     -1268.310505971     -1264.434302042        12.041793931
        18           18.000000         3.847987747       300.357675404     -1268.292106929     -1264.428697208        11.954479408
        19           19.000000         3.602072709       281.162585953     -1268.029803088     -1264.411612429        11.976912692
        20           20.000000         3.780589374       295.096843031     -1268.297226392     -1264.499865810        11.969846021
        21           21.000000         3.731044576       291.229585284     -1268.203862678     -1264.455399739        11.975333761
        22           22.000000         3.791655926       295.960651364     -1268.273293574     -1264.463590383        11.967221085
        23           23.000000         3.851360117       300.620908406     -1268.342360010     -1264.472323781        12.024128642
        24           24.000000         3.603253984       281.254791269     -1267.991567047     -1264.369029134        11.947934639
        25           25.000000         3.833494130       299.226364899     -1268.282549277     -1264.429199905        11.983388510
        26           26.000000         3.905095070       304.815231890     -1268.383173505     -1264.457634225        12.004321411
        27           27.000000         3.723425884       290.634902372     -1268.138042799     -1264.393585852        11.991408400
        28           28.000000         3.815827700       297.847397917     -1268.266846349     -1264.429424187        12.002731755
        29           29.000000         3.674041947       286.780200739     -1268.059033962     -1264.362848466        11.977025498
        30           30.000000         3.797886736       296.447002041     -1268.237835255     -1264.417283495        12.014974374
        31           31.000000         3.949198281       308.257742322     -1268.458317995     -1264.485921995        11.991072908
        32           32.000000         3.670923358       286.536776875     -1268.075855240     -1264.381199435        11.971271109
        33           33.000000         3.811633104       297.519985525     -1268.277086592     -1264.441219065        11.968797367
        34           34.000000         3.883849360       303.156881529     -1268.354121758     -1264.445529233        11.965368524
        35           35.000000         3.811394191       297.501336950     -1268.290052254     -1264.453401204        11.977760844
        36           36.000000         3.918280627       305.844440824     -1268.493271253     -1264.549219149        12.601950657
        37           37.000000         3.662816420       285.903983493     -1268.125917371     -1264.436818285        11.963340193
        38           38.000000         3.751142078       292.798311437     -1268.228255880     -1264.450357347        11.979166158
        39           39.000000         3.983551280       310.939192418     -1268.537001916     -1264.526214113        11.994409408
        40           40.000000         3.774306383       294.606419305     -1268.220085521     -1264.418043414        11.981496159
        41           41.000000         3.835269092       299.364910957     -1268.359643822     -1264.496155623        11.993831586
        42           42.000000         3.788670142       295.727593611     -1268.293319529     -1264.475949538        11.959093567
        43           43.000000         3.778714019       294.950460693     -1268.248186357     -1264.440304464        11.960720129
        44           44.000000         4.016576697       313.517016984     -1268.585062711     -1264.538842001        11.960122492
        45           45.000000         3.755173475       293.112985239     -1268.243968269     -1264.458653030        11.986997772
        46           46.000000         3.721268459       290.466502849     -1268.253835529     -1264.501957163        11.965481780
        47           47.000000         3.909395493       305.150904778     -1268.512069786     -1264.571604513        12.607725140
        48           48.000000         3.809024571       297.316374401     -1268.326810695     -1264.486244259        12.617748599
        49           49.000000         3.923753319       306.271616024     -1268.499902077     -1264.544134456        11.948643666
        50           50.000000         3.770906642       294.341049859     -1268.337349833     -1264.533948433        11.999640569
        51           51.000000         3.682842426       287.467129025     -1268.189210277     -1264.473419100        11.986163832
        52           52.000000         3.990489635       311.480771117     -1268.600886419     -1264.577001896        12.582391292
        53           53.000000         3.831608799       299.079203914     -1268.351154953     -1264.485677411        11.948425282
        54           54.000000         3.761552051       293.610869940     -1268.280649668     -1264.484767820        11.975718599
        55           55.000000         3.811509275       297.510319951     -1268.393398474     -1264.547111645        11.962893747
        56           56.000000         3.705413847       289.228958836     -1268.211274667     -1264.470647677        11.967176035
        57           57.000000         3.942661304       307.747493531     -1268.536789283     -1264.558489489        12.002290174
        58           58.000000         3.802265735       296.788808224     -1268.364572600     -1264.526225964        11.980408218
        59           59.000000         3.591361881       280.326543958     -1268.076013571     -1264.448156637        11.952123851
        60           60.000000         3.835367166       299.372566165     -1268.404761875     -1264.532520590        11.965282973
        61           61.000000         3.783235255       295.303369339     -1268.280291405     -1264.459800729        12.011005796
        62           62.000000         3.832758938       299.168978897     -1268.361774103     -1264.491386817        11.962945789
        63           63.000000         3.813379088       297.656269620     -1268.358693371     -1264.507314150        11.972264949
        64           64.000000         3.597096670       280.774177341     -1268.052816309     -1264.417368341        11.960813150
        65           65.000000         3.887941809       303.476320786     -1268.418185037     -1264.491572067        11.951172255
        66           66.000000         3.882583704       303.058089719     -1268.471799993     -1264.550210190        12.619936068
        67           67.000000         3.687175871       287.805379403     -1268.222562040     -1264.496049476        12.578245256
        68           68.000000         3.784207166       295.379232584     -1268.404462503     -1264.580614555        12.595604867
        69           69.000000         3.680907420       287.316090629     -1268.216947074     -1264.496110120        11.960299771
        70           70.000000         3.870435979       302.109889595     -1268.481719748     -1264.571085921        12.645017974
        71           71.000000         3.937616302       307.353701938     -1268.585037590     -1264.606942373        12.603032749
        72           72.000000         3.636247014       283.830087847     -1268.171977810     -1264.494968508        11.972044133
        73           73.000000         3.805648829       297.052878269     -1268.458918929     -1264.612257169        11.962831281
        74           74.000000         3.848118506       300.367881909     -1268.488071999     -1264.598692213        12.607497077
        75           75.000000         3.793734153       296.122868977     -1268.398504953     -1264.563261883        11.959246192
        76           76.000000         3.861425505       301.406570086     -1268.534433270     -1264.631256492        11.957282539
        77           77.000000         3.600051939       281.004853197     -1268.195943010     -1264.553906736        12.580595158
        78           78.000000         3.750430319       292.742754563     -1268.398470641     -1264.605862375        12.616653763
        79           79.000000         3.941198014       307.633275318     -1268.639617727     -1264.656055614        12.603643499
        80           80.000000         3.730779629       291.208904681     -1268.346558040     -1264.573218133        11.979297135
        81           81.000000         3.811801516       297.533131035     -1268.483877117     -1264.629336444        11.952312838
        82           82.000000         3.742619371       292.133064912     -1268.392480258     -1264.606951450        12.612993620
        83           83.000000         3.767221824       294.053428530     -1268.338243104     -1264.527959102        12.600786731
        84           84.000000         3.965683623       309.544518515     -1268.611244514     -1264.602351475        12.569725290
        85           85.000000         3.683844763       287.545367211     -1268.201728133     -1264.474515020        11.940325625
        86           86.000000         3.730079752       291.154275207     -1268.274373414     -1264.500793329        12.564724367
        87           87.000000         3.898178123       304.275324262     -1268.485744162     -1264.543948590        11.954749931
        88           88.000000         3.797758888       296.437022784     -1268.278135655     -1264.436636130        11.951265622
        89           89.000000         3.936748814       307.285989504     -1268.492492114     -1264.511881196        11.955253419
        90           90.000000         3.771976307       294.424543407     -1268.277315724     -1264.461344338        11.941622522
        91           91.000000         3.732085735       291.310853729     -1268.219165427     -1264.442965172        12.025182262
        92           92.000000         3.995930412       311.905455166     -1268.561267087     -1264.521113084        11.943114799
        93           93.000000         3.798534675       296.497577457     -1268.260239439     -1264.417351192        11.976823449
        94           94.000000         3.799431243       296.567559765     -1268.283699353     -1264.439790809        11.967049781
        95           95.000000         3.864769217       301.667566099     -1268.385877225     -1264.476512164        11.944772836
        96           96.000000         3.792765212       296.047237554     -1268.252129128     -1264.414647881        11.983404767
        97           97.000000         4.007419126       312.802215697     -1268.528673936     -1264.476418339        11.948197562
        98           98.000000         3.824374959       298.514560923     -1268.285537069     -1264.416180549        11.944087762
        99           99.000000         3.703502273       289.079749436     -1268.123534598     -1264.374912218        11.987756155
       100          100.000000         3.940101002       307.547647178     -1268.446348414     -1264.461004571        11.946827028
       101          101.000000         3.845522028       300.165211841     -1268.312084136     -1264.421181965        11.948335998
       102          102.000000         3.914382117       305.540139623     -1268.409406052     -1264.449501133        11.973974966
       103          103.000000         3.885369810       303.275561440     -1268.394026299     -1264.462977094        11.972667366
       104          104.000000         3.722069936       290.529062826     -1268.188746730     -1264.420838228        11.915436573
       105          105.000000         3.980181391       310.676153054     -1268.591058243     -1264.564889497        11.935207959
       106          106.000000         3.872618554       302.280252196     -1268.456966219     -1264.538188603        11.949459150
       107          107.000000         3.709987251       289.585939443     -1268.213903687     -1264.457585440        11.923394073
       108          108.000000         3.836264076       299.442575140     -1268.390961627     -1264.508213081        11.969018940
       109          109.000000         3.750710613       292.764633076     -1268.233014315     -1264.435670002        11.958557799
       110          110.000000         3.937253138       307.325354921     -1268.520711617     -1264.536683860        11.963003881
       111          111.000000         3.934495101       307.110074182     -1268.635156126     -1264.653726218        12.563470118
       112          112.000000         3.678132752       287.099511710     -1268.292022758     -1264.566786771        12.581210326
       113          113.000000         3.862565467       301.495550707     -1268.514556085     -1264.604740622        12.563246708
       114          114.000000         3.808431020       297.270044375     -1268.455417932     -1264.599588075        12.550390229
       115          115.000000         3.748770772       292.613217321     -1268.376451500     -1264.580140662        12.581570540
       116          116.000000         3.843782499       300.029431546     -1268.525502659     -1264.634051621        12.569542941
       117          117.000000         3.676296360       286.956170727     -1268.268908129     -1264.544820802        12.566756431
       118          118.000000         3.898689648       304.315251696     -1268.564881803     -1264.618300063        12.578174349
       119          119.000000         3.994914618       311.826166555     -1268.692448284     -1264.649526673        12.592305869
       120          120.000000         3.771627804       294.397340676     -1268.369128761     -1264.549357000        12.598845765
       121          121.000000         3.893893821       303.940909745     -1268.548839224     -1264.606670269        12.555152543
       122          122.000000         3.829504315       298.914936807     -1268.451518724     -1264.573599990        12.715271417
       123          123.000000         3.864798709       301.669868105     -1268.503734593     -1264.590381229        12.580683984
       124          124.000000         4.008629265       312.896674010     -1268.725243157     -1264.667906612        12.551069222
       125          125.000000         3.780454810       295.086339543     -1268.398821193     -1264.569482107        12.547233224
       126          126.000000         3.917589634       305.790504820     -1268.585913111     -1264.619265325        12.555661310
       127          127.000000         4.016885567       313.541126083     -1268.716619793     -1264.650479967        12.597222250
       128          128.000000         3.841926888       299.884590405     -1268.449427201     -1264.558020703        12.550205499
       129          129.000000         3.912720096       305.410409279     -1268.589959532     -1264.627528291        12.582554214
       130          130.000000         3.759917031       293.483247210     -1268.389301092     -1264.579432314        12.574065514
       131          131.000000         3.805347596       297.029365312     -1268.404931088     -1264.549402755        12.592582084
       132          132.000000         4.014185167       313.330344230     -1268.701931721     -1264.637329224        12.564029586
       133          133.000000         3.786120037       295.528543237     -1268.385957272     -1264.549156901        12.571491636
       134          134.000000         3.831109081       299.040198033     -1268.480987065     -1264.598941494        11.954786189
       135          135.000000         3.876443658       302.578823683     -1268.533195750     -1264.605554969        12.596364215
       136          136.000000         3.780023619       295.052682588     -1268.386517079     -1264.555030405        12.560278110
       137          137.000000         3.934134535       307.081929978     -1268.592393047     -1264.606529827        12.602039650
       138          138.000000         3.751531086       292.828675763     -1268.354512188     -1264.550973869        12.566924598
       139          139.000000         3.752819506       292.929244365     -1268.347840804     -1264.542751276        12.599680599
       140          140.000000         4.014995909       313.393627361     -1268.731963529     -1264.664432947        12.562899861
       141          141.000000         3.887366543       303.431417970     -1268.547146696     -1264.606946627        12.560837466
       142          142.000000         3.922205049       306.150764661     -1268.624205924     -1264.648853828        12.583675429
       143          143.000000         3.855249574       300.924503000     -1268.563120548     -1264.654393053        12.556831397
       144          144.000000         3.739373185       291.879681307     -1268.364506550     -1264.571325688        12.567317583
       145          145.000000         3.981045963       310.743637943     -1268.682154594     -1264.646972003        12.598228347
       146          146.000000         3.863012669       301.530457407     -1268.539784547     -1264.622276366        12.557451006
       147          147.000000         3.809845923       297.380485706     -1268.466056977     -1264.601352697        12.596491843
       148          148.000000         3.968225231       309.742905695     -1268.710135460     -1264.686678959        13.198357359
       149          149.000000         3.865152377       301.697473974     -1268.538642075     -1264.617857409        12.576116532
       150          150.000000         3.982881925       310.886945383     -1268.712306371     -1264.673372854        12.575804532
       151          151.000000         3.893016074       303.872396519     -1268.614316203     -1264.664796831        12.583682545
       152          152.000000         3.684740846       287.615311641     -1268.345255808     -1264.603562062        12.555621050
       153          153.000000         3.893936179       303.944216026     -1268.623857164     -1264.672531379        12.610905599
       154          154.000000         3.837164274       299.512840795     -1268.523614112     -1264.628602998        12.586569954
       155          155.000000         3.824319313       298.510217385     -1268.487143727     -1264.604516106        12.568314828
       156          156.000000         3.930239126       306.777870730     -1268.639869322     -1264.650846840        12.587177902
       157          157.000000         3.779158110       294.985124582     -1268.415299366     -1264.576865688        12.558389910
       158          158.000000         3.933835309       307.058573613     -1268.639903767     -1264.646296204        12.549421590
       159          159.000000         3.902827559       304.638239605     -1268.611683472     -1264.648555586        12.574708447
       160          160.000000         3.697421670       288.605123238     -1268.341400467     -1264.583148870        11.933472041
       161          161.000000         3.871546142       302.196544244     -1268.594801126     -1264.661906978        11.972002465
       162          162.000000         3.836165094       299.434849057     -1268.528038363     -1264.629987017        11.961660579
       163          163.000000         3.880462858       302.892545472     -1268.577089330     -1264.634190194        12.601277910
       164          164.000000         3.958843457       309.010604084     -1268.720062765     -1264.698204708        12.612175163
       165          165.000000         3.732676301       291.356950837     -1268.407018216     -1264.610733166        12.582441643
       166          166.000000         3.865532992       301.727183155     -1268.607495431     -1264.677768124        12.589524299
       167          167.000000         3.894917011       304.020775645     -1268.642888109     -1264.683164945        11.946103033
       168          168.000000         3.745732593       292.376069896     -1268.432487223     -1264.621328228        12.575753011
       169          169.000000         3.858885825       301.208333406     -1268.625441732     -1264.700512726        11.939580727
       170          170.000000         3.757504021       293.294897848     -1268.470763490     -1264.646588468        12.561815683
       171          171.000000         3.838729814       299.635040284     -1268.570272478     -1264.664245480        11.966582000
       172          172.000000         3.963742712       309.393019199     -1268.733682696     -1264.701986455        12.585782293
       173          173.000000         3.725253555       290.777562659     -1268.411744729     -1264.617862874        12.547708046
       174          174.000000         3.800302826       296.635591831     -1268.530544095     -1264.660954724        12.595530663
       175          175.000000         3.823903279       298.477743545     -1268.562997055     -1264.669136849        12.582182903
       176          176.000000         3.758106310       293.341909953     -1268.454011127     -1264.625273907        12.572392203
       177          177.000000         3.917992206       305.821927937     -1268.701263813     -1264.711956071        12.572891075
       178          178.000000         3.781371512       295.157893441     -1268.491603972     -1264.638208962        12.561693806
       179          179.000000         3.826988207       298.718539969     -1268.585262229     -1264.685544635        13.250144605
       180          180.000000         3.976635534       310.399378476     -1268.795001614     -1264.744898788        12.618791159
       181          181.000000         3.783236299       295.303450789     -1268.526974698     -1264.669504504        12.613836478
       182          182.000000         3.831393131       299.062369783     -1268.615138113     -1264.708749648        12.627010144
       183          183.000000         3.805226836       297.019939244     -1268.581207199     -1264.700210512        13.223111130
       184          184.000000         3.765244426       293.899081167     -1268.498377560     -1264.656588190        12.577633187
       185          185.000000         3.964121519       309.422587278     -1268.768262533     -1264.726798799        12.564031407
       186          186.000000         3.793159356       296.078002711     -1268.533994473     -1264.662662121        12.606257178
       187          187.000000         3.761541601       293.610054322     -1268.531579795     -1264.691046660        13.207288761
       188          188.000000         3.878696404       302.754663539     -1268.727610516     -1264.769091346        13.225813583
       189          189.000000         3.744504763       292.280230650     -1268.515231468     -1264.690057843        13.247422632
       190          190.000000         3.838375077       299.607351023     -1268.647057440     -1264.727169666        12.598658226
       191          191.000000         3.763839787       293.789440972     -1268.563387012     -1264.717177647        12.603214111
       192          192.000000         3.673687140       286.752506011     -1268.430834063     -1264.673938992        13.220360309
       193          193.000000         3.897131945       304.193663998     -1268.765751179     -1264.784567828        13.215111692
       194          194.000000         3.803731047       296.903184269     -1268.630541988     -1264.741882797        13.197993152
       195          195.000000         3.783418410       295.317665618     -1268.604997292     -1264.735776949        13.222802434
       196          196.000000         3.842535551       299.932099998     -1268.565231114     -1264.636009227        12.605431143
       197          197.000000         3.730864641       291.215540349     -1268.397536160     -1264.579095309        13.242953699
       198          198.000000         3.910396195       305.229015351     -1268.645082126     -1264.646210840        12.574762825
       199          199.000000         3.876020687       302.545808387     -1268.578147776     -1264.612711532        12.626640081
       200          200.000000         3.756642601       293.227659072     -1268.418350078     -1264.571349259        12.543989126
       201          201.000000         3.927484943       306.562890841     -1268.680911297     -1264.662112507        12.692743093
       202          202.000000         3.842627722       299.939294528     -1268.558108610     -1264.623173477        12.632622503
       203          203.000000         3.867686710       301.895293338     -1268.579144322     -1264.618144623        12.560265429
       204          204.000000         3.905051059       304.811796627     -1268.663020776     -1264.663620520        12.643543184
       205          205.000000         3.732926328       291.376466930     -1268.401934414     -1264.573616541        12.556488588
       206          206.000000         3.906797724       304.948133894     -1268.618141205     -1264.614905409        12.614750989
       207          207.000000         3.900183302       304.431840029     -1268.605002927     -1264.607286375        12.579867858
       208          208.000000         3.764477702       293.839233922     -1268.410280851     -1264.547169224        12.587858167
       209          209.000000         3.867211282       301.858183379     -1268.575370280     -1264.608421434        12.586935394
       210          210.000000         3.760205855       293.505791559     -1268.430008321     -1264.568945175        12.562974032
       211          211.000000         3.835029540       299.346212491     -1268.491064560     -1264.554057512        11.993553665
       212          212.000000         3.908017662       305.043357099     -1268.618984945     -1264.607832156        12.565303452
       213          213.000000         3.709505499       289.548335861     -1268.335619845     -1264.521817348        12.661490887
       214          214.000000         3.829491825       298.913961837     -1268.514509392     -1264.579572295        11.973391291
       215          215.000000         3.846067689       300.207803773     -1268.459261049     -1264.506567560        12.577740680
       216          216.000000         3.797227668       296.395557987     -1268.357827362     -1264.452782791        12.590125974
       217          217.000000         3.897324846       304.208721085     -1268.544626394     -1264.538274343        12.566332273
       218          218.000000         3.720826433       290.432000201     -1268.286885690     -1264.455813642        12.550707087
       219          219.000000         3.794319148       296.168531242     -1268.377871653     -1264.472106754        12.583395202
       220          220.000000         3.932711893       306.970884539     -1268.563014859     -1264.517615246        12.588627551
       221          221.000000         3.785859813       295.508231251     -1268.352563706     -1264.452748929        12.553777833
       222          222.000000         3.864377669       301.637003511     -1268.462108042     -1264.482509293        12.579601932
       223          223.000000         3.807105199       297.166556338     -1268.449683496     -1264.526071172        12.570237622
       224          224.000000         3.762060609       293.650565827     -1268.398033203     -1264.518188118        12.591374114
       225          225.000000         3.909172424       305.133492970     -1268.597987806     -1264.569732499        12.567089435
       226          226.000000         3.736335500       291.642572483     -1268.339815268     -1264.483082890        11.950972654
       227          227.000000         3.747580210       292.520287083     -1268.369260427     -1264.499999026        12.564133670