    2698
 i =        0, time =        0.000, E =     -1268.3926182346
  C        12.6800160000       13.7117640000       11.4093850000
  O        12.7341660000       14.8820710000       11.1405580000
  O        12.1331800000       13.1780680000       12.5692240000
  N        13.2028920000       12.6566850000       10.7112330000
  H        12.0370430000       13.8349320000       13.2903090000
  H        13.7841020000       12.8022670000        9.8588320000
  H        12.9592270000       11.7366000000       11.1288870000
  O        13.0784870000       10.3232490000       12.5906240000
  H        12.9197080000       11.1699110000       12.9554080000
  H        12.4124870000        9.6498560000       12.8855100000
  O        27.6187380000       13.9548880000        0.4484380000
  H        27.1165960000       14.0543330000       -0.3672400000
  H        27.6003680000       13.0280060000        0.6470590000
  O         0.0129420000       17.8298170000        0.2128980000
  H        -0.7359280000       17.2148480000       -0.0392520000
  H        -0.5671690000       18.6027410000        0.4277670000
  O         0.3938430000        8.6288830000      -12.7747820000
  H        -0.1139360000        7.8925200000      -12.3765640000
  H        -0.2836890000        9.1088100000      -13.3119940000
  O        27.2810310000       23.7238100000       -9.4741530000
  H        27.1853080000       24.6806340000       -9.6206930000
  H        26.3572010000       23.4255960000       -9.2107990000
  O        23.1826270000        7.7884080000        9.6778430000
  H        22.7461070000        8.5041910000        9.1571880000
  H        22.4126830000        7.2832530000       10.0774350000
  O        17.4739930000       -3.2282770000        9.5664230000
  H        17.0902040000       -2.8534610000        8.7389140000
  H        16.8704780000       -4.0436880000        9.5796530000
  O        -3.4280760000       21.2905060000       -6.4971630000
  H        -4.1165690000       21.0424100000       -7.1107630000
  H        -3.3192110000       22.2346270000       -6.6189210000
  O        -3.4345480000        8.3935400000       -0.8810430000
  H        -3.6270290000        8.8867210000       -1.6943240000
  H        -2.4915660000        8.6221830000       -0.7594410000
  O        25.6623400000        2.1586690000       -3.5385350000
  H        24.8274020000        1.8799380000       -4.0283730000
  H        26.1383550000        1.2765340000       -3.4876960000
  O        17.5207200000       23.8453460000       -4.8176770000
  H        18.2424450000       23.6601090000       -4.1945120000
  H        18.0593280000       23.9356500000       -5.6154330000
  O         0.1454490000       10.1308190000        3.1725080000
  H        -0.8060830000       10.0446510000        2.8794770000
  H         0.5918710000        9.4388320000        2.5795770000
  O         6.8100940000       16.7896960000      -14.0579900000
  H         6.3761790000       17.1111720000      -13.2631970000
  H         6.1585330000       17.0895500000      -14.7216640000
  O        22.7497600000        4.7178990000       -3.3506160000
  H        23.6209450000        4.4353850000       -2.9524810000
  H        22.7436500000        5.6261380000       -3.0926610000
  O         0.2677590000        1.5240580000      -10.4685160000
  H         0.0170090000        1.9228250000      -11.2694630000
  H         0.7677750000        2.1765980000       -9.9300670000
  O        20.2947580000        3.9817310000       -2.6847200000
  H        20.5861400000        3.5983600000       -1.8412290000
  H        21.2380790000        4.0233800000       -3.1095410000
  O        11.1212280000        1.0479920000      -11.2193480000
  H        11.6628760000        1.4041510000      -10.4942770000
  H        10.6847520000        1.8140120000      -11.5049280000
  O        -3.5405070000       22.3621180000       -1.4686290000
  H        -3.1873720000       21.4719330000       -1.5202920000
  H        -3.2004740000       22.7569580000       -2.2701160000
  O        25.1933480000       -4.9482190000       -4.8373450000
  H        24.4123760000       -4.2833400000       -4.6898830000
  H        25.9460810000       -4.3804870000       -4.5096740000
  O        22.0222780000       28.1756360000       -8.8519890000
  H        21.4169640000       28.6999030000       -8.2863200000
  H        22.2576100000       27.5342450000       -8.1619990000
  O        15.3861320000       13.4555560000      -11.6865900000
  H        15.3770510000       14.2729320000      -12.1750370000
  H        15.4792470000       13.8154400000      -10.7427850000
  O        10.9585380000       14.4818050000      -16.1936550000
  H        10.0734700000       14.9600240000      -16.4544790000
  H        11.4892750000       14.8525610000      -16.9590910000
  O        18.3504220000       25.5372430000      -13.9460020000
  H        18.1156250000       25.0336820000      -13.1091380000
  H        18.1747380000       24.7835010000      -14.5487510000
  O        21.3003230000        4.7042540000       -6.5649160000
  H        22.2909450000        4.5608090000       -6.6193170000
  H        21.0222780000        3.7648010000       -6.7524520000
  O        22.5970330000        0.0034260000       -5.0062600000
  H        23.1044810000        0.8675870000       -5.0717560000
  H        21.7881450000        0.3235380000       -5.4528000000
  O        -3.5167760000        5.3372650000      -13.1598020000
  H        -3.5941550000        5.1503990000      -14.1261510000
  H        -3.3807320000        4.3942990000      -12.8573320000
  O        20.3390790000       11.7620050000       -0.7476200000
  H        21.1290260000       11.1996940000       -0.7758010000
  H        20.7135850000       12.6473570000       -0.8916890000
  O        15.3238650000        7.3886390000        2.1704680000
  H        15.8517910000        8.1548170000        1.8998910000
  H        14.4642310000        7.6377960000        1.8086120000
  O         1.6143860000       24.4107150000       -4.4977970000
  H         1.0598710000       25.1646860000       -4.0982160000
  H         2.4255950000       25.0029910000       -4.6918410000
  O        26.4098030000        6.3699090000      -16.0145820000
  H        26.2375350000        7.3332010000      -16.1161440000
  H        25.4568410000        6.1313360000      -15.7613080000
  O        14.9722010000       -1.0522170000       -5.7368760000
  H        15.3908630000       -0.6618580000       -6.5280340000
  H        15.3293840000       -0.3909730000       -5.0576610000
  O        21.1981700000       -1.4249300000        0.1882290000
  H        21.3882260000       -2.1419450000       -0.4734220000
  H        20.7068540000       -0.7922560000       -0.3570730000
  O        -1.3126770000        9.7538240000      -14.4569860000
  H        -1.9971280000        9.1020070000      -14.8094870000
  H        -1.1096950000       10.2485720000      -15.2880890000
  O        24.7434580000       -2.1588900000       10.2631100000
  H        24.1805130000       -2.0373260000        9.4348770000
  H        24.2512910000       29.0673770000       10.6662650000
  O         7.6907460000       -3.7028400000        5.0807760000
  H         8.5192470000       -3.9656650000        4.7236500000
  H         7.1591440000       -4.5080100000        5.0476800000
  O         5.8762250000        6.2255130000       -3.3827970000
  H         5.5631790000        6.9927720000       -2.9093720000
  H         6.6015030000        5.9342540000       -2.8358920000
  O         8.2552890000       -3.0488360000      -13.2415790000
  H         7.8209960000       -3.5318470000      -14.0211210000
  H         8.9943270000       -3.6650590000      -13.0658730000
  O        24.7779500000       16.6701300000        6.2713550000
  H        25.5204260000       16.0916040000        5.8650040000
  H        25.3093970000       17.4414220000        6.6396080000
  O        23.8554420000        7.9488360000       -0.1829360000
  H        24.7310850000        7.7118510000       -0.5092910000
  H        24.1261620000        8.1535340000        0.7625740000
  O        23.6437530000        2.6068380000       -5.0627850000
  H        24.0400390000        3.0293860000       -5.9047650000
  H        23.2532480000        3.4148160000       -4.6600780000
  O         3.0164380000        3.3232860000      -15.0572010000
  H         2.3300700000        2.8851520000      -15.5723520000
  H         3.5464540000        2.5183550000      -14.7848810000
  O         9.7137380000        3.2200610000        2.7705120000
  H        10.0090830000        4.0292460000        3.2707800000
  H         8.8377570000        3.5004530000        2.4495830000
  O        12.1634430000        0.8750290000       -2.5279320000
  H        12.5542310000        1.7011550000       -2.2842980000
  H        12.4484420000        0.6578020000       -3.4436320000
  O         3.9303400000        0.7376320000      -14.8076880000
  H         3.5989350000        0.1378020000      -15.4703160000
  H         3.8987160000        0.1127390000      -14.0505430000
  O        26.2864550000        1.5324810000       -0.4310910000
  H        26.5381090000        0.7085510000       -0.0109950000
  H        27.1139450000        2.0310320000       -0.2596630000
  O        13.1417140000       11.8238900000        0.8799680000
  H        12.7333340000       12.2350580000        1.6790730000
  H        12.4178430000       11.2512390000        0.6592470000
  O         5.1813440000        9.5767820000      -12.3479110000
  H         5.2099960000        9.2084680000      -13.2313500000
  H         4.5820460000       10.3328430000      -12.3748060000
  O        10.1996050000       13.7861390000       -9.7905340000
  H         9.6932640000       14.1055890000      -10.5837730000
  H        10.1208360000       12.7854410000       -9.9600370000
  O        26.6961310000        3.5479560000        7.9327130000
  H        26.3946210000        2.7983500000        8.4741300000
  H        26.5262870000        3.1724800000        7.0226880000
  O        19.5309220000        9.9229070000        8.6896040000
  H        20.4561610000        9.7321730000        8.3256470000
  H        18.9934960000        9.1557920000        8.4767710000
  O        10.3492010000       -4.4171760000       -9.1104490000
  H         9.9790470000       -3.5486320000       -9.4153180000
  H        11.1259910000       -4.1148090000       -8.6394960000
  O        16.8301660000       14.6296250000       -1.7134320000
  H        16.5994150000       13.8813600000       -1.1308500000
  H        15.9755540000       15.1428570000       -1.7192940000
  O         7.5171390000       10.0400510000        9.9359970000
  H         7.9453250000        9.7160160000        9.1892390000
  H         7.0926420000        9.3092730000       10.3321310000
  O         7.4485800000       18.5632920000        3.5369920000
  H         6.9039760000       18.9827650000        2.8210090000
  H         6.7992300000       18.8852670000        4.2757680000
  O         7.5751690000       25.2038780000       -4.8334250000
  H         7.8409370000       24.4172730000       -4.3218660000
  H         8.4552690000       25.5476630000       -5.1014270000
  O         8.4433520000       -0.5398520000      -14.0126430000
  H         8.3032330000       -1.5044390000      -13.9330970000
  H         9.3763000000       -0.4473010000      -13.7909100000
  O        12.2804610000       20.4081750000        5.4553740000
  H        12.6256890000       19.8759140000        4.6678900000
  H        11.5374580000       19.8438660000        5.7845840000
  O         2.5388460000       -0.8035590000        7.8136420000
  H         2.0753160000       -0.2946650000        8.5352220000
  H         2.1291780000       -1.6615670000        7.9167110000
  O        15.8313710000       -2.1954620000      -14.0485110000
  H        16.5738010000       -1.7064880000      -14.4199180000
  H        16.3213140000       -2.8149500000      -13.5121560000
  O        24.6349180000       21.5250630000      -14.9950540000
  H        25.5267300000       21.7888320000      -14.8024160000
  H        24.2252310000       22.3787100000      -15.2911920000
  O         7.0042730000       -6.3985640000        5.1328500000
  H         7.3283160000       25.1723940000        5.8974060000
  H         6.0530860000       -6.3600700000        5.2880020000
  O         5.5920000000       14.6274480000       -4.4072180000
  H         6.0544650000       15.1446020000       -3.7718890000
  H         6.0041160000       14.8404030000       -5.2222220000
  O        22.8859080000       18.1272890000        5.1396710000
  H        22.9515900000       18.8589150000        5.8112110000
  H        23.6170790000       17.5506940000        5.5000960000
  O         7.0281640000        5.9752450000        0.4704860000
  H         6.0158790000        6.2082270000        0.5801200000
  H         6.9407460000        5.4048740000       -0.3483670000
  O        27.1616130000        4.1027610000       12.5565130000
  H        27.1185650000        4.1703490000       13.5889370000
  H        27.6254180000        3.2097330000       12.4882750000
  O         6.2950100000       -2.0256830000       -0.3828400000
  H         6.5874220000       -2.8487390000       -0.8629080000
  H         6.2179670000       -1.4346840000       -1.1981940000
  O        17.2188300000       20.1239280000        2.6068270000
  H        16.3850590000       20.5861990000        2.3939180000
  H        17.2232820000       19.4625740000        1.8832240000
  O        22.2884520000       28.7047120000       -1.4672460000
  H        22.0208130000       27.7969670000       -1.7981110000
  H        22.6479210000       29.0521660000       -2.2920490000
  O        20.6566180000        9.3818960000       -6.4340680000
  H        20.9264110000       10.2975730000       -6.2417540000
  H        20.7363740000        8.9741760000       -5.5684200000
  O        10.9929670000       -1.0743600000       10.4158920000
  H        10.3497020000       -1.5094430000        9.8457260000
  H        11.5240030000       -1.8198080000       10.5978080000
  O         6.1175360000       25.6346840000        8.2838780000
  H         6.4485230000       26.0828740000        9.0777030000
  H         6.9254740000       25.1941640000        7.9160450000
  O        -1.9237230000        0.9170020000       -1.0600120000
  H        -2.4267920000        1.5422680000       -0.4721270000
  H        -1.9651420000        1.4529140000       -1.8826880000
  O         6.2889520000       10.5804440000      -15.3308320000
  H         6.9858750000       11.1396000000      -15.7150960000
  H         6.8759280000        9.8206880000      -15.1620420000
  O         6.1445860000       -4.5555020000       -4.7934210000
  H         6.7591550000       -4.1400940000       -5.4348730000
  H         6.5585540000       -5.4317220000       -4.7809880000
  O        28.4519020000       15.1637350000      -15.8456950000
  H        28.0915700000       14.3258680000      -15.5080840000
  H        27.7640740000       15.7811370000      -15.4714660000
  O        12.9088730000       13.6863000000        4.1059890000
  H        13.4984440000       13.0865550000        4.5790010000
  H        11.9774850000       13.3805410000        4.2729610000
  O        12.0230410000        8.0822530000       -1.8679100000
  H        11.9506610000        8.3124890000       -2.8414750000
  H        11.1410990000        7.7022860000       -1.7192570000
  O         7.9899640000       12.7052720000      -15.8549840000
  H         7.4485180000       13.1398010000      -15.1180390000
  H         8.0691880000       13.4874400000      -16.4633180000
  O        18.5012700000       -4.9409690000       -5.6918950000
  H        18.8160590000       -5.8116160000       -6.0757990000
  H        17.8179570000       -4.6977440000       -6.3891520000
  O        24.0130330000        6.4244380000      -15.0515360000
  H        23.7375030000        6.9395560000      -14.2948880000
  H        23.3162590000        5.7591490000      -15.1473620000
  O         9.3372620000       18.7508620000       -1.0519210000
  H         9.0558230000       17.9045050000       -0.8384780000
  H        10.1792480000       18.9044590000       -0.6961080000
  O        24.6929680000       -2.3473070000      -10.7632340000
  H        25.0567130000       -3.1728670000      -11.1694800000
  H        23.7222420000       -2.5707210000      -10.8410300000
  O        11.0282870000       17.6505680000       -8.7264000000
  H        11.8257830000       18.1435390000       -8.9935980000
  H        10.4063620000       17.9153210000       -9.4057610000
  O        17.8974630000       12.4308910000        9.3979870000
  H        17.2836650000       11.8399330000        9.9344600000
  H        18.5771730000       11.7599860000        9.1526860000
  O         7.6663780000       14.6485560000       12.3487460000
  H         8.0910510000       14.2572220000       11.5679710000
  H         7.9194250000       14.0242630000       13.0806170000
  O         9.8427640000        1.6153030000        4.9609270000
  H         9.7485720000        1.9704230000        4.0441660000
  H         8.8834150000        1.5069940000        5.1203650000
  O        19.8324300000       12.8108840000        6.4612860000
  H        19.4302180000       12.0629800000        6.8211620000
  H        20.4656930000       12.6178060000        5.7185020000
  O        24.3129630000       20.5916710000        9.7667670000
  H        23.8247360000       20.5665210000       10.6188290000
  H        23.6572060000       21.0979040000        9.1956610000
  O         7.5294130000        4.3846480000       -1.5984030000
  H         6.9016030000        3.6312520000       -1.8180430000
  H         8.4419110000        3.9256900000       -1.7890390000
  O         2.1721780000        0.0921240000        3.9300730000
  H         1.3698090000        0.5836780000        4.3398440000
  H         1.6159810000       -0.4945980000        3.2969680000
  O        -0.2377710000        1.4605340000        4.3756720000
  H        -1.1600050000        1.2231640000        4.4720680000
  H         0.0472060000        1.4546070000        5.3158060000
  O         7.2437590000       -3.8695540000        2.0427970000
  H         6.6246370000       -3.7478540000        2.7734490000
  H         7.7876310000       -3.0652290000        2.0394710000
  O        19.8483200000       16.4983020000        8.5481600000
  H        20.5022370000       16.2573110000        7.9310800000
  H        19.8295000000       15.6426920000        9.1090620000
  O        17.6674770000       23.2274530000      -15.9541710000
  H        17.7569100000       22.2766490000      -15.7886540000
  H        16.7383250000       23.3054450000      -15.5895170000
  O         5.9468670000        0.1073400000       -8.7894200000
  H         6.1099820000        0.2973550000       -9.7218190000
  H         5.2465200000        0.7306560000       -8.6869180000
  O        16.3782220000       26.6100750000       -1.8673410000
  H        16.5003720000       -4.4224040000       -1.6356000000
  H        15.6978270000       26.3784900000       -1.1789590000
  O        12.1840780000       21.4072990000       -3.0351030000
  H        12.0437250000       22.1427460000       -2.3986710000
  H        13.1752250000       21.1388130000       -2.7964200000
  O         7.1452510000        1.2744770000        8.5114050000
  H         7.2124920000        1.2073330000        7.5545230000
  H         6.2143340000        1.5406520000        8.5357990000
  O        20.2305950000       -7.0055850000       -0.0007770000
  H        20.2016640000       -6.2269080000        0.6722880000
  H        19.7530440000       24.3600640000        0.5309940000
  O         1.3586480000       12.5814450000        3.2553030000
  H         0.8595870000       11.7625940000        3.3564330000
  H         1.5692750000       12.9129170000        4.1365010000
  O         4.6316600000        4.6875300000       -5.0305930000
  H         4.6688940000        3.8895500000       -4.5052500000
  H         5.3046880000        5.2119320000       -4.5708180000
  O        12.9464270000        9.2997990000        6.4532780000
  H        13.8849630000        8.9385720000        6.5189290000
  H        12.5132580000        9.1409300000        5.5401030000
  O        16.5732100000        4.5381060000      -10.8880220000
  H        16.8482590000        4.1863540000      -10.0342240000
  H        16.1055550000        5.3752480000      -10.6345950000
  O         1.6964320000       15.9776580000      -12.0143890000
  H         1.9231260000       15.0410030000      -11.6783490000
  H         1.9792980000       15.8867080000      -12.9667130000
  O        19.0970750000        2.3648680000        2.1600140000
  H        18.9424190000        1.9604270000        1.3211050000
  H        19.9100230000        1.9192160000        2.4177440000
  O         7.4593100000       -1.1226690000       -4.2548890000
  H         8.4480420000       -1.1718080000       -4.1902090000
  H         7.2972490000       -1.2751540000       -5.2046360000
  O        15.9790010000        1.5912680000        9.2021240000
  H        16.0053900000        0.6407210000        9.3452620000
  H        16.9762940000        1.7509290000        9.0405800000
  O         5.7522490000       19.5046410000        1.3871030000
  H         5.7856050000       19.7770290000        0.4509700000
  H         4.9855910000       18.8693620000        1.4337520000
  O         4.9964350000       20.3154850000        9.3487910000
  H         5.1091110000       19.5167350000        9.8011560000
  H         5.7202640000       20.8831840000        9.6611280000
  O        16.4613020000       -0.2291640000       -7.9743890000
  H        15.7050330000        0.1330020000       -8.4781290000
  H        17.1080340000        0.5261830000       -7.9723140000
  O         9.7603430000       29.0366270000       -1.4407090000
  H         9.7336060000       -2.2452800000       -2.0852520000
  H        10.0117380000       -2.5327130000       -0.6176910000
  O         0.7126110000       19.1677460000      -12.4308820000
  H        -0.0546190000       18.5717960000      -12.2369110000
  H         0.4341380000       19.7983490000      -11.7332170000
  O        -5.0729020000       -3.9840510000        4.3585080000
  H        -4.4133340000       -4.7223580000        4.5421710000
  H        -5.1628990000       -4.0914960000        3.3905480000
  O         7.4178390000        8.2260530000      -14.5824400000
  H         8.3755250000        8.0933360000      -14.4062640000
  H         7.1584380000        7.2522150000      -14.6748290000
  O        19.1153370000       -1.2978250000       -4.0434400000
  H        18.2250060000       -1.1590040000       -3.7195050000
  H        19.1523060000       -2.3184580000       -3.8685470000
  O        14.7320460000        6.0112280000       -5.3034320000
  H        14.6420750000        6.7565790000       -5.9436350000
  H        14.4785910000        6.5390200000       -4.5087530000
  O        12.6625370000        4.8114440000       12.0377460000
  H        11.8120490000        4.4260260000       11.7104720000
  H        13.2582690000        4.2390390000       11.5781350000
  O        21.4486890000       -5.9113260000       -2.2769500000
  H        20.5196210000       26.0805720000       -2.6000350000
  H        21.3632530000       -6.4032170000       -1.4001580000
  O        -1.7341950000        5.0471860000       -2.7029910000
  H        -1.4945810000        4.3334720000       -3.3322150000
  H        -1.2484370000        4.7389900000       -1.8609290000
  O        23.1091180000       22.1132720000       -6.8689130000
  H        22.7269740000       21.2548260000       -6.6743220000
  H        22.6238980000       22.7586570000       -6.2784040000
  O        -1.2788830000       -4.9198370000       -1.2328320000
  H        -1.3108420000       -3.9218050000       -1.3234120000
  H        -0.4481690000       -5.0230460000       -0.7277220000
  O         7.2093650000        4.2174110000        2.5603670000
  H         7.2089940000        4.8090970000        1.7828220000
  H         6.5210120000        4.6129820000        3.1523770000
  O        27.8139670000        2.4186550000        2.7234630000
  H        27.9513760000        1.6802490000        3.3576910000
  H        26.8264330000        2.4193650000        2.6741110000
  O        17.7845130000        9.2652730000        5.5504540000
  H        17.8818230000        9.3477020000        4.5919380000
  H        16.8940490000        8.8343320000        5.6445600000
  O        -1.3740920000       12.5238360000       -0.6048050000
  H        -1.1186960000       13.1858050000        0.0804890000
  H        -0.6675620000       12.6631040000       -1.2658310000
  O         9.8095250000       13.6735900000        4.1147240000
  H         9.4416710000       12.7926330000        3.8913130000
  H         9.3865240000       13.8933430000        4.9615840000
  O         7.8873830000       27.1239890000       -7.7676690000
  H         8.4863320000       27.4621960000       -8.5043830000
  H         8.6398370000       27.0441230000       -7.0710210000
  O        29.2042960000       23.4620550000      -12.7779050000
  H        29.4253710000       22.8449270000      -12.0398870000
  H        -2.5890790000       24.3172230000      -12.3335770000
  O        -2.0203280000       27.1520920000       -7.5682210000
  H        -2.6842450000       26.8027310000       -6.9527890000
  H        -1.6938240000       26.3303240000       -7.9696840000
  O        -2.9435930000       -0.6981400000        2.7940230000
  H        -2.5420590000        0.0768640000        3.1839680000
  H        -2.5339900000       -1.3895870000        3.3392520000
  O        12.4679970000        0.2136350000       -5.0271940000
  H        11.7576710000        0.3566680000       -5.7284240000
  H        12.9738100000       -0.4776830000       -5.4849860000
  O        12.5127120000       22.9042130000      -11.7774550000
  H        12.5188770000       22.4807590000      -12.6250490000
  H        12.0704270000       23.7270700000      -11.9268800000
  O        11.0443090000       10.2577210000        0.2623610000
  H        11.2943290000        9.9126270000       -0.6159410000
  H        10.2601670000       10.8302480000        0.0175100000
  O        -2.5868530000       24.6542110000        6.1493390000
  H        -1.8954530000       23.9279440000        6.2440460000
  H        -3.3983840000       24.1414600000        6.2856580000
  O         2.9002270000       22.5432190000        3.6208630000
  H         3.8502480000       22.3056430000        3.6011710000
  H         2.9628300000       23.4805970000        3.2755430000
  O        21.7817780000       -1.6762060000      -12.4939630000
  H        21.2060170000       -2.0209760000      -13.2485650000
  H        21.6168980000       -0.7181230000      -12.5849380000
  O        -1.0580860000       16.1323720000       -8.0707520000
  H        -0.8189650000       15.5431900000       -7.3225700000
  H        -1.9624430000       16.3799860000       -7.8596110000
  O        21.6365490000        6.9649840000       -8.2827060000
  H        22.2794270000        7.1208520000       -7.5701120000
  H        21.9405990000        6.0172170000       -8.4734780000
  O        16.9547180000        0.7791150000      -11.7359500000
  H        17.7223570000        0.9165800000      -11.0812350000
  H        17.0118200000        1.6048740000      -12.2774990000
  O        24.4787100000        0.5848350000      -10.0865520000
  H        23.6208170000        0.5958490000       -9.6316330000
  H        24.6539330000       -0.4103380000      -10.1877760000
  O        11.2701450000        1.5840140000       10.4699420000
  H        11.2213420000        1.9654920000        9.5570380000
  H        11.1053260000        0.5500110000       10.3507580000
  O        19.0818940000       21.0809420000      -10.3185890000
  H        18.5624350000       21.8693920000      -10.5911680000
  H        19.9494860000       21.3770560000      -10.7233230000
  O        13.9419370000       18.3155310000      -12.3099090000
  H        13.0040190000       18.1695350000      -12.2327470000
  H        14.2480000000       17.9893070000      -11.4571400000
  O        13.3741450000        6.7369430000       10.3087600000
  H        12.9041650000        6.0421450000       10.9128040000
  H        13.0240140000        6.5014870000        9.4244820000
  O        26.6762120000       14.7099320000       -2.0577580000
  H        25.9913540000       14.3779310000       -2.6955610000
  H        26.5648960000       15.6693760000       -2.1170360000
  O         6.1050920000       -1.9477500000      -11.3830470000
  H         6.8297250000       -2.0711820000      -12.0600780000
  H         5.8599590000       -2.8990490000      -11.2249860000
  O        -3.4610700000       17.7722510000       -1.0442730000
  H        -2.8954840000       18.3442340000       -1.5536730000
  H        -2.8464820000       17.1127190000       -0.6644480000
  O        10.2771240000        1.7828130000        0.3251970000
  H        10.3240450000        2.5030780000        0.9285470000
  H        10.0979310000        2.2416560000       -0.5156190000
  O         6.2586900000       11.3587250000       -6.7987090000
  H         6.8384300000       11.5924730000       -6.0274610000
  H         5.7549360000       12.1875140000       -6.9387910000
  O        18.1565820000       18.0034220000        7.1144700000
  H        17.8547760000       17.4669170000        6.3890680000
  H        18.8010640000       17.4371910000        7.6635660000
  O         9.5813440000       11.2284470000      -10.2967340000
  H         8.6542550000       11.0331250000      -10.4730890000
  H         9.8761800000       11.3503330000      -11.2148360000