#     Step Nr.          Time[fs]        Kin.[a.u.]          Temp[K]            Pot.[a.u.]        Cons Qty[a.u.]        UsedTime[s]
         0            0.000000         3.847680642       300.000000000     -1487.889241099     -1484.041085435         0.000000000
         1            1.000000         3.779757109       294.704066735     -1487.808381704     -1484.027303747        86.496905164
         2            2.000000         3.755916347       292.845225204     -1487.796279080     -1484.038218407        16.559542555
         3            3.000000         3.774459432       294.291011857     -1487.815422181     -1484.038012413        15.655410277
         4            4.000000         3.762056348       293.323955230     -1487.776392196     -1484.010593867        16.599039708
         5            5.000000         3.811346680       297.167075565     -1487.828092564     -1484.012223677        15.656749462
         6            6.000000         3.764852833       293.541994500     -1487.766448865     -1483.996302708        16.635132558
         7            7.000000         3.757935611       293.002665271     -1487.764496328     -1484.000516863        15.653907726
         8            8.000000         3.847154534       299.958979819     -1487.875946042     -1484.022004205        15.689657350
         9            9.000000         3.795263240       295.913065023     -1487.807643121     -1484.004848933        16.619861661
        10           10.000000         3.754542724       292.738125136     -1487.753211997     -1483.990413562        15.838357009
        11           11.000000         3.728657820       290.719903791     -1487.735997380     -1483.998383086        25.360931048
        12           12.000000         3.714958153       289.651753752     -1487.706072145     -1483.981483038        22.011557158
        13           13.000000         3.813209090       297.312285883     -1487.828425729     -1484.004926654        23.340509943
        14           14.000000         3.789215075       295.441495360     -1487.798170660     -1483.998009635        24.211805430
        15           15.000000         3.754220669       292.713014801     -1487.744668945     -1483.978862948        24.655032151
        16           16.000000         3.821661218       297.971290279     -1487.834050174     -1484.000177175        23.317533515
        17           17.000000         3.808336351       296.932363038     -1487.794705966     -1483.973533765        23.184714314
        18           18.000000         3.812132804       297.228368882     -1487.817137680     -1483.991552808        24.478523717
        19           19.000000         3.758437794       293.041820042     -1487.753717975     -1483.981223995        24.303090906
        20           20.000000         3.697205139       288.267568171     -1487.650464000     -1483.938624835        23.210767178
        21           21.000000         3.815782883       297.512962062     -1487.807003708     -1483.976029263        23.357440175
        22           22.000000         3.840026795       299.403236805     -1487.823597035     -1483.967818781        23.383908001
        23           23.000000         3.796201850       295.986247548     -1487.776698426     -1483.964189432        23.549549390
        24           24.000000         3.790038767       295.505717853     -1487.789195929     -1483.982306755        23.269834991
        25           25.000000         3.750143288       292.395105308     -1487.735196818     -1483.967674801        24.654439769
        26           26.000000         3.826168660       298.322731206     -1487.839913148     -1483.995850819        23.737068965
        27           27.000000         3.825178867       298.245558037     -1487.785417117     -1483.941830190        25.269081115
        28           28.000000         3.732456382       291.016074009     -1487.664198218     -1483.912831783        24.937609455
        29           29.000000         3.801992211       296.437716447     -1487.740374505     -1483.918989898        24.689878948
        30           30.000000         3.854021233       300.494369817     -1487.787697488     -1483.913802650        23.463789578
        31           31.000000         3.880579616       302.565101710     -1487.816008147     -1483.915067514        23.445340097
        32           32.000000         3.873812512       302.037477031     -1487.837832239     -1483.943163607        23.340542331
        33           33.000000         3.769300650       293.888786579     -1487.696482743     -1483.905834500        23.565111810
        34           34.000000         3.814347747       297.401065850     -1487.764780348     -1483.928608438        23.512047525
        35           35.000000         3.870602856       301.787223183     -1487.869566292     -1483.976661953        23.373454808
        36           36.000000         3.815436011       297.485916808     -1487.783403522     -1483.945186060        24.965161671
        37           37.000000         3.822368630       298.026446468     -1487.803943776     -1483.958320791        23.560321230
        38           38.000000         3.808664917       296.957981013     -1487.750110097     -1483.917723029        23.441735707
        39           39.000000         3.853014427       300.415870161     -1487.802897188     -1483.925696399        24.940823383
        40           40.000000         3.892181903       303.469720954     -1487.870277988     -1483.953438590        23.652262630
        41           41.000000         3.771601451       294.068177854     -1487.704822017     -1483.908091056        23.362980657
        42           42.000000         3.763229971       293.415461468     -1487.704946040     -1483.916133683        23.479249806
        43           43.000000         3.804630168       296.643395518     -1487.763653729     -1483.933000747        23.647229917
        44           44.000000         3.798429384       296.159926281     -1487.738051260     -1483.913165266        23.593178534
        45           45.000000         3.829110701       298.552119383     -1487.788310646     -1483.932315992        23.783528102
        46           46.000000         3.767853054       293.775918903     -1487.713579835     -1483.918422086        23.724758639
        47           47.000000         3.790959776       295.577528041     -1487.720719530     -1483.902049034        23.608538795
        48           48.000000         3.874267711       302.072968464     -1487.819614185     -1483.917232754        23.616890355
        49           49.000000         3.791509312       295.620374832     -1487.710163664     -1483.890135344        23.591569636
        50           50.000000         3.758886832       293.076831060     -1487.682870149     -1483.895073810        25.657745610
        51           51.000000         3.765272081       293.574682904     -1487.702567783     -1483.908012383        23.583572436
        52           52.000000         3.796895741       296.040349559     -1487.726336306     -1483.899796042        24.987609501
        53           53.000000         3.894345399       303.638406738     -1487.849747787     -1483.925397878        25.004113900
        54           54.000000         3.821256854       297.939762404     -1487.755065626     -1483.903436913        24.902725036
        55           55.000000         3.779359775       294.673086951     -1487.688860156     -1483.878769903        23.553463232
        56           56.000000         3.869850793       301.728585575     -1487.812547097     -1483.911614033        25.033821038
        57           57.000000         3.875424856       302.163189941     -1487.803766695     -1483.896899785        24.202257226
        58           58.000000         3.880296840       302.543053929     -1487.820333876     -1483.908227844        23.416402482
        59           59.000000         3.824926286       298.225864461     -1487.778549209     -1483.921442619        23.164710901
        60           60.000000         3.790315582       295.527300798     -1487.723298730     -1483.900438665        24.810587904
        61           61.000000         3.904909189       304.462055401     -1487.871181630     -1483.933366290        24.981124714
        62           62.000000         3.888230685       303.161648261     -1487.845282280     -1483.923769449        23.576682441
        63           63.000000         3.813367048       297.324601734     -1487.760194809     -1483.913165839        23.089786278
        64           64.000000         3.807245303       296.847295053     -1487.750184229     -1483.908904744        24.553032673
        65           65.000000         3.797152069       296.060335226     -1487.725288998     -1483.893737787        23.080235943
        66           66.000000         3.877858209       302.352916179     -1487.844830795     -1483.932211311        23.286358668
        67           67.000000         3.860106785       300.968854532     -1487.825687954     -1483.930449545        23.351491988
        68           68.000000         3.764597140       293.522058363     -1487.701346467     -1483.901250525        23.251433402
        69           69.000000         3.828431730       298.499180609     -1487.783069146     -1483.918783756        23.551109887
        70           70.000000         3.849100331       300.110691763     -1487.813016515     -1483.927706890        23.488952125
        71           71.000000         3.842526043       299.598100797     -1487.798588919     -1483.919495924        23.579023828
        72           72.000000         3.820093828       297.849082381     -1487.773833903     -1483.916816423        23.302736631
        73           73.000000         3.727532765       290.632184324     -1487.682228039     -1483.917425557        23.345048277
        74           74.000000         3.800038296       296.285371590     -1487.787663967     -1483.950028566        23.791062918
        75           75.000000         3.848651552       300.075700936     -1487.849558964     -1483.962985906        23.592731658
        76           76.000000         3.790193482       295.517780800     -1487.753201245     -1483.924762930        23.936459831
        77           77.000000         3.804341209       296.620865651     -1487.811403578     -1483.968503844        23.621997355
        78           78.000000         3.773588132       294.223077485     -1487.767688289     -1483.955236460        23.648891517
        79           79.000000         3.802796217       296.500404056     -1487.793898227     -1483.951944561        23.436955458
        80           80.000000         3.842381083       299.586798396     -1487.859024353     -1483.977196283        23.429337323
        81           81.000000         3.753519126       292.658316176     -1487.733245879     -1483.939994505        23.402827182
        82           82.000000         3.785288825       295.135369382     -1487.746177748     -1483.920887340        23.469301161
        83           83.000000         3.824573496       298.198357798     -1487.781397290     -1483.916560764        25.204870524
        84           84.000000         3.806384336       296.780166267     -1487.745733736     -1483.898828478        23.356368300
        85           85.000000         3.837709254       299.222540384     -1487.794916343     -1483.916433086        23.415411706
        86           86.000000         3.760509909       293.203380844     -1487.699358706     -1483.897826133        23.269815974
        87           87.000000         3.754672899       292.748274730     -1487.729140386     -1483.933212491        23.324853847
        88           88.000000         3.806239713       296.768890196     -1487.803377237     -1483.955664052        23.179639368
        89           89.000000         3.734520387       291.177002526     -1487.679812380     -1483.903610154        23.333815683
        90           90.000000         3.757669804       292.981940552     -1487.719436027     -1483.919895648        23.393150938
        91           91.000000         3.778803613       294.629723568     -1487.742690960     -1483.921843212        23.263706545
        92           92.000000         3.769350364       293.892662740     -1487.718701073     -1483.907145688        23.245273284
        93           93.000000         3.821357386       297.947600746     -1487.795345269     -1483.931633795        23.154652827
        94           94.000000         3.749605446       292.353170231     -1487.716482327     -1483.924381117        23.173770894
        95           95.000000         3.738203714       291.464188024     -1487.688710997     -1483.907887940        23.254123764
        96           96.000000         3.806918196       296.821790824     -1487.783664464     -1483.934020975        23.423642525
        97           97.000000         3.772547295       294.141924395     -1487.709676919     -1483.894307551        23.571316136
        98           98.000000         3.807573274       296.872866639     -1487.745964680     -1483.895484867        23.418914263
        99           99.000000         3.804785424       296.655500642     -1487.732922974     -1483.885154324        24.719070069
       100          100.000000         3.791004532       295.581017622     -1487.698496647     -1483.864440442        24.712911423
       101          101.000000         3.869711713       301.717741614     -1487.789761973     -1483.876937953        26.411816327
       102          102.000000         3.801791221       296.422045521     -1487.693172659     -1483.848207081        27.284737631
       103          103.000000         3.768193675       293.802476817     -1487.640987698     -1483.829566051        27.120254002
       104          104.000000         3.814024570       297.375868100     -1487.702236439     -1483.844943471        26.871768511
       105          105.000000         3.795364473       295.920958030     -1487.678863191     -1483.840197615        24.392813614
       106          106.000000         3.847202136       299.962691344     -1487.761926661     -1483.871398939        24.498202472
       107          107.000000         3.807286765       296.850527838     -1487.718716282     -1483.868081531        23.341968916
       108          108.000000         3.750494603       292.422497006     -1487.642048319     -1483.848191743        23.105984177
       109          109.000000         3.827520616       298.428141970     -1487.770714096     -1483.899833321        23.269475714
       110          110.000000         3.794086818       295.821340539     -1487.707640303     -1483.870201902        24.531865517
       111          111.000000         3.776001580       294.411251722     -1487.688812304     -1483.869477974        24.452338844
       112          112.000000         3.788577177       295.391759035     -1487.708931057     -1483.877053591        24.530257445
       113          113.000000         3.749347123       292.333029060     -1487.641192250     -1483.848590451        24.634932315
       114          114.000000         3.842493502       299.595563609     -1487.759598302     -1483.873912896        24.373668016
       115          115.000000         3.836174539       299.102880075     -1487.745956502     -1483.866657820        24.784361911
       116          116.000000         3.756502287       292.890910401     -1487.642028148     -1483.842473602        24.417471608
       117          117.000000         3.802652608       296.489207048     -1487.711750312     -1483.866132857        24.562787293
       118          118.000000         3.790769574       295.562698174     -1487.703730867     -1483.870095715        25.050506194
       119          119.000000         3.832713029       298.832989455     -1487.737942788     -1483.862475139        24.955680631
       120          120.000000         3.853191808       300.429700385     -1487.793406525     -1483.897576958        25.536829404
       121          121.000000         3.766664588       293.683255333     -1487.670479699     -1483.861296263        25.722532892
       122          122.000000         3.827720748       298.443746034     -1487.753123339     -1483.883016318        23.113616166
       123          123.000000         3.845822652       299.855134278     -1487.766084255     -1483.878016172        22.990930533
       124          124.000000         3.809543594       297.026490631     -1487.713666657     -1483.862021795        24.798487841
       125          125.000000         3.839326165       299.348609406     -1487.773959357     -1483.892683966        23.337442023
       126          126.000000         3.785992813       295.190258648     -1487.694996542     -1483.867211937        23.240931506
       127          127.000000         3.844134343       299.723498433     -1487.762964520     -1483.877207750        23.422662276
       128          128.000000         3.915534802       305.290524289     -1487.845485929     -1483.888503819        23.230358789
       129          129.000000         3.839994283       299.400701928     -1487.738267924     -1483.856993907        23.222856215
       130          130.000000         3.862869272       301.184243029     -1487.779714298     -1483.875733271        24.813609906
       131          131.000000         3.858739677       300.862262437     -1487.771310410     -1483.871627526        23.218857904
       132          132.000000         3.856084968       300.655277311     -1487.759466235     -1483.862606771        23.327111664
       133          133.000000         3.914060245       305.175554469     -1487.844902982     -1483.890237548        23.274888880
       134          134.000000         3.838786179       299.306507155     -1487.740521663     -1483.861291799        23.385992374
       135          135.000000         3.859925048       300.954684699     -1487.779788340     -1483.879581887        23.255380304
       136          136.000000         3.921432928       305.750395575     -1487.851019209     -1483.889468018        23.383236496
       137          137.000000         3.865560609       301.394084016     -1487.758566086     -1483.853041108        23.362444257
       138          138.000000         3.886117606       302.996893481     -1487.796767929     -1483.870836088        23.669597058
       139          139.000000         3.844053539       299.717198227     -1487.752947919     -1483.869226161        23.561223820
       140          140.000000         3.818949136       297.759831767     -1487.725024299     -1483.866554425        23.414780759
       141          141.000000         3.892982399       303.532134875     -1487.834848705     -1483.902499841        23.512666182
       142          142.000000         3.829195954       298.558766470     -1487.751876399     -1483.883465442        23.832122740
       143          143.000000         3.821534019       297.961372687     -1487.751182685     -1483.890588629        23.585488015
       144          144.000000         3.844269410       299.734029486     -1487.786797884     -1483.903630945        23.538132107
       145          145.000000         3.800712476       296.337936796     -1487.721209736     -1483.881767008        23.663568368
       146          146.000000         3.858080836       300.810893192     -1487.816059422     -1483.919425852        23.146748614
       147          147.000000         3.811597115       297.186601727     -1487.740653961     -1483.890685605        23.122598481
       148          148.000000         3.776593520       294.457404725     -1487.692535447     -1483.877760415        23.195754351
       149          149.000000         3.862541541       301.158690183     -1487.782892805     -1483.882375548        23.420082414
       150          150.000000         3.829683749       298.596799328     -1487.726647111     -1483.859198708        24.490559780
       151          151.000000         3.858316008       300.829229339     -1487.764617980     -1483.868754313        23.240242307
       152          152.000000         3.880595989       302.566378257     -1487.812925954     -1483.895002878        23.265039821
       153          153.000000         3.825312190       298.255953028     -1487.709692166     -1483.847272002        23.336223336
       154          154.000000         3.898725576       303.979924922     -1487.803682428     -1483.868074011        24.699626255
       155          155.000000         3.872913114       301.967351824     -1487.765530712     -1483.855957787        24.844823556
       156          156.000000         3.822706220       298.052768079     -1487.699960351     -1483.840814965        23.443802075
       157          157.000000         3.889726697       303.278290915     -1487.760897657     -1483.834959361        24.842892887
       158          158.000000         3.851008379       300.259460447     -1487.688889138     -1483.801896207        25.889492020
       159          159.000000         3.876770163       302.268082269     -1487.726624563     -1483.814098697        24.554937991
       160          160.000000         3.885903003       302.980161139     -1487.746052763     -1483.824623024        24.586007024
       161          161.000000         3.810164242       297.074881994     -1487.659317082     -1483.813852054        24.521614086
       162          162.000000         3.869170660       301.675556264     -1487.743994149     -1483.839756889        24.552359559
       163          163.000000         3.837730219       299.224174965     -1487.698722019     -1483.826162908        24.721910750
       164          164.000000         3.788167262       295.359798342     -1487.637165758     -1483.814412006        24.525120376
       165          165.000000         3.828189355       298.480282850     -1487.694756271     -1483.832237154        24.715947109
       166          166.000000         3.783431061       294.990521288     -1487.641923556     -1483.824430522        24.731974291
       167          167.000000         3.835861885       299.078502714     -1487.702125669     -1483.832485837        24.693101724
       168          168.000000         3.858456825       300.840208703     -1487.754076287     -1483.862137370        24.800637879
       169          169.000000         3.782447876       294.913863244     -1487.635690965     -1483.820061121        24.673322377
       170          170.000000         3.844246148       299.732215736     -1487.731306501     -1483.854193803        24.857406433
       171          171.000000         3.830901299       298.691730572     -1487.724652990     -1483.861211689        23.328983399
       172          172.000000         3.798330672       296.152229793     -1487.690997628     -1483.860462093        23.516123321
       173          173.000000         3.830053383       298.625619388     -1487.739352014     -1483.877444116        24.858876770
       174          174.000000         3.758339148       293.034128719     -1487.626855007     -1483.837023103        24.796356483
       175          175.000000         3.811698692       297.194521572     -1487.695821794     -1483.853013436        24.798012700
       176          176.000000         3.858268837       300.825551478     -1487.760776507     -1483.871801605        24.128560358
       177          177.000000         3.785063351       295.117789380     -1487.651382954     -1483.836024886        23.492815849
       178          178.000000         3.825790267       298.293228283     -1487.720763708     -1483.865106508        23.498764950
       179          179.000000         3.807331277       296.853998345     -1487.716644263     -1483.879889783        23.652026484
       180          180.000000         3.818789366       297.747374678     -1487.722385452     -1483.874632679        24.887166402
       181          181.000000         3.877168836       302.299166413     -1487.812657662     -1483.907003634        23.463804844
       182          182.000000         3.781402275       294.832338773     -1487.684842597     -1483.875438645        23.411819385
       183          183.000000         3.805998422       296.750076933     -1487.710145367     -1483.876644322        23.364995192
       184          184.000000         3.861858757       301.105454134     -1487.779226840     -1483.890387688        24.398107016
       185          185.000000         3.826643780       298.359775901     -1487.719492434     -1483.866401901        23.172322991
       186          186.000000         3.870618111       301.788412600     -1487.792548784     -1483.896031226        23.318421572
       187          187.000000         3.807319518       296.853081510     -1487.706222171     -1483.873558127        23.367658460
       188          188.000000         3.790535265       295.544429336     -1487.685536099     -1483.870223294        23.520995812
       189          189.000000         3.876733460       302.265220561     -1487.802577268     -1483.901658767        23.179726307
       190          190.000000         3.811644346       297.190284299     -1487.702457924     -1483.867232279        23.437475363
       191          191.000000         3.817331717       297.633723139     -1487.720062541     -1483.879765811        24.986035973
       192          192.000000         3.825956933       298.306223035     -1487.716863799     -1483.868577335        24.746317420
       193          193.000000         3.788296877       295.369904345     -1487.663937968     -1483.853962327        24.828140657
       194          194.000000         3.866988554       301.505419528     -1487.765789160     -1483.877797747        24.661620502
       195          195.000000         3.812880880       297.286695674     -1487.698644830     -1483.865451459        24.617861745
       196          196.000000         3.773653596       294.228181653     -1487.649923526     -1483.856658820        23.507456232
       197          197.000000         3.850306207       300.204712814     -1487.757989849     -1483.888802548        23.395898199
       198          198.000000         3.825236274       298.250033974     -1487.719255417     -1483.875888592        23.355364136
       199          199.000000         3.860362651       300.988804146     -1487.767141148     -1483.889416296        23.552600345
       200          200.000000         3.851192728       300.273833976     -1487.758203344     -1483.890431893        24.939671899
       201          201.000000         3.792352485       295.686116192     -1487.671022304     -1483.862882111        23.473232084
       202          202.000000         3.879545431       302.484467320     -1487.787650120     -1483.893132581        23.642721867
       203          203.000000         3.849277743       300.124524454     -1487.732923127     -1483.869505828        23.314745123
       204          204.000000         3.817417873       297.640440658     -1487.685663376     -1483.854945844        23.469894977
       205          205.000000         3.873401620       302.005440151     -1487.771608886     -1483.885768527        23.632930374
       206          206.000000         3.838391283       299.275717478     -1487.690876788     -1483.840921713        23.289422794
       207          207.000000         3.908689184       304.756777972     -1487.780035834     -1483.860675750        23.309899822
       208          208.000000         3.908309549       304.727178216     -1487.803601256     -1483.885525915        23.177586697
       209          209.000000         3.811200155       297.155651101     -1487.667500462     -1483.847433010        23.360263303
       210          210.000000         3.861891966       301.108043399     -1487.748811157     -1483.878962989        23.191167168
       211          211.000000         3.834670403       298.985604032     -1487.700973473     -1483.859274265        23.228601126
       212          212.000000         3.825288928       298.254139317     -1487.677394751     -1483.846016554        23.295273650
       213          213.000000         3.864579172       301.317562292     -1487.746818060     -1483.877110614        23.205910072
       214          214.000000         3.800438605       296.316583333     -1487.652718349     -1483.848122980        24.677565950
       215          215.000000         3.864494148       301.310933093     -1487.739315091     -1483.871656466        23.502556516
       216          216.000000         3.882972216       302.751650481     -1487.759891632     -1483.874770308        23.366651667
       217          217.000000         3.795464009       295.928718758     -1487.623653759     -1483.827056951        23.363088008
       218          218.000000         3.821717005       297.975639914     -1487.683645148     -1483.861825432        24.552354464
       219          219.000000         3.781827397       294.865485118     -1487.629402515     -1483.848521690        23.256616203
       220          220.000000         3.802010564       296.439147448     -1487.642950800     -1483.842959264        24.675987572
       221          221.000000         3.870148554       301.751801740     -1487.726156617     -1483.859134541        24.854559766
       222          222.000000         3.798927040       296.198728012     -1487.638985309     -1483.844305178        25.150070236
       223          223.000000         3.845098231       299.798651824     -1487.721380187     -1483.881666864        23.533131228
       224          224.000000         3.872054079       301.900373672     -1487.756306405     -1483.890801567        23.379617616
       225          225.000000         3.820473965       297.878721226     -1487.681391976     -1483.868639192        23.159081485
       226          226.000000         3.856723967       300.705099431     -1487.741275397     -1483.893459595        23.212677551
       227          227.000000         3.796516613       296.010789292     -1487.655125392     -1483.868714698        23.220903704