#     Step Nr.          Time[fs]        Kin.[a.u.]          Temp[K]            Pot.[a.u.]        Cons Qty[a.u.]        UsedTime[s]
         0            0.000000         3.843405441       300.000000000     -1250.782669887     -1246.938789424         0.000000000
         1            1.000000         3.656845816       285.437943380     -1250.569769000     -1246.911618776        46.026988940
         2            2.000000         3.448092082       269.143508380     -1250.326739482     -1246.876591982        12.282887978
         3            3.000000         3.585857036       279.896858996     -1250.526661556     -1246.938070645        12.224737471
         4            4.000000         3.581074247       279.523534638     -1250.482406403     -1246.897957974        12.254773583
         5            5.000000         3.676108586       286.941513863     -1250.603926655     -1246.923842750        12.262967510
         6            6.000000         3.678620612       287.137592021     -1250.603590162     -1246.920419002        12.298259309
         7            7.000000         3.624753304       282.932937379     -1250.482365926     -1246.852523317        12.322087992
         8            8.000000         3.897386894       304.213564222     -1250.802192267     -1246.899196036        12.242524633
         9            9.000000         3.837664879       299.551915916     -1250.709211873     -1246.865400080        12.231655408
        10           10.000000         3.657931856       285.522715117     -1250.487287441     -1246.822691447        12.280403849
        11           11.000000         3.694945577       288.411849870     -1250.560315050     -1246.858228176        12.280039499
        12           12.000000         3.691474225       288.140890796     -1250.520845076     -1246.821779430        12.244527923
        13           13.000000         3.958945501       309.018569190     -1250.833970877     -1246.866990999        12.257959465
        14           14.000000         4.003882064       312.526127523     -1250.877637590     -1246.865241541        12.286948076
        15           15.000000         3.801244203       296.709071730     -1250.588480298     -1246.778225450        12.227635654
        16           16.000000         3.957829379       308.931449453     -1250.815969208     -1246.848634374        12.270344872
        17           17.000000         3.947384489       308.116165406     -1250.774513919     -1246.817100196        12.266047847
        18           18.000000         3.878942055       302.773837987     -1250.692369459     -1246.802859439        12.335347978
        19           19.000000         3.857435839       301.095153613     -1250.707179333     -1246.838634078        12.234889122
        20           20.000000         3.709642209       289.559006897     -1250.538101532     -1246.816820019        12.231803840
        21           21.000000         3.982155929       310.830277177     -1250.874960664     -1246.880642503        12.257437957
        22           22.000000         4.120685783       321.643332624     -1251.049939088     -1246.916513619        12.253017899
        23           23.000000         3.897364272       304.211798439     -1250.767880290     -1246.857156189        12.321374135
        24           24.000000         3.884946591       303.242526727     -1250.816263291     -1246.917337647        12.230933517
        25           25.000000         3.796737850       296.357324852     -1250.714543368     -1246.903207990        12.257332278
        26           26.000000         3.870976530       302.152082737     -1250.819247880     -1246.933060852        12.226981282
        27           27.000000         3.952963730       308.551657436     -1250.928523887     -1246.959717417        12.248185903
        28           28.000000         3.711493497       289.703510631     -1250.605104027     -1246.877133720        12.226685958
        29           29.000000         3.858109701       301.147752382     -1250.804715534     -1246.929518307        12.345776690
        30           30.000000         4.016110790       313.480650228     -1251.008916080     -1246.975077974        12.253429497
        31           31.000000         3.929669596       306.733415654     -1250.889284905     -1246.941212067        12.248599410
        32           32.000000         3.913225245       305.449839069     -1250.935688108     -1247.003371819        12.247650046
        33           33.000000         3.671019756       286.544301294     -1250.631082199     -1246.940296800        12.287254401
        34           34.000000         3.747302142       292.498582219     -1250.734959577     -1246.967256495        12.267510859
        35           35.000000         3.986579324       311.175548701     -1251.069987660     -1247.062358984        12.311586203
        36           36.000000         3.813623643       297.675358570     -1250.809915559     -1246.974568841        12.267005263
        37           37.000000         3.846813577       300.266024683     -1250.876418573     -1247.007219703        12.231422205
        38           38.000000         3.869083318       302.004306634     -1250.905110499     -1247.012973121        12.229198514
        39           39.000000         3.859499837       301.256260570     -1250.807411746     -1246.924182245        12.270850534
        40           40.000000         3.998694647       312.121219695     -1251.037797350     -1247.014677476        12.970645351
        41           41.000000         3.732702202       291.358972564     -1250.715773150     -1246.957938977        12.943002462
        42           42.000000         3.704799440       289.181000782     -1250.675375222     -1246.944778049        12.902834535
        43           43.000000         3.962988411       309.334141672     -1250.968747972     -1246.979294489        12.240248796
        44           44.000000         3.934270168       307.092516877     -1250.872297458     -1246.910856142        12.270108674
        45           45.000000         3.996724133       311.967409662     -1250.955762961     -1246.931135738        12.333949430
        46           46.000000         3.856413091       301.015322226     -1250.831255841     -1246.946187145        12.936493345
        47           47.000000         3.778207166       294.910897908     -1250.726822238     -1246.919221910        12.922384201
        48           48.000000         4.039434536       315.301203368     -1251.072806496     -1247.003226238        12.992359720
        49           49.000000         3.885873140       303.314849240     -1250.859509715     -1246.942696534        12.883248087
        50           50.000000         3.803057406       296.850602730     -1250.768072620     -1246.933292213        12.934484120
        51           51.000000         3.921539873       306.098843793     -1250.948218520     -1246.994170089        12.986999825
        52           52.000000         3.915989138       305.665576897     -1250.889611762     -1246.940302221        13.011073627
        53           53.000000         4.107143741       320.586298037     -1251.121020509     -1246.979702609        12.940988339
        54           54.000000         3.936281323       307.249499171     -1250.933843018     -1246.962484040        12.936348334
        55           55.000000         3.729028753       291.072238672     -1250.657888793     -1246.892901258        12.902434833
        56           56.000000         3.978837640       310.571265565     -1250.966439810     -1246.950766495        12.257534659
        57           57.000000         3.949639378       308.292172508     -1250.903713853     -1246.916313727        12.953081027
        58           58.000000         3.930465678       306.795554474     -1250.899798930     -1246.930628565        12.948181599
        59           59.000000         3.907701237       305.018658307     -1250.919167470     -1246.971802463        12.957121668
        60           60.000000         3.765643035       293.930194932     -1250.722832834     -1246.916574756        12.973169234
        61           61.000000         4.025131272       314.184751004     -1251.061220255     -1246.994511055        12.251095058
        62           62.000000         3.954511754       308.672489599     -1251.003648344     -1247.006540841        12.950668098
        63           63.000000         3.697050007       288.576112781     -1250.694877162     -1246.954235319        12.947994515
        64           64.000000         3.797497595       296.416627347     -1250.878972202     -1247.036924504        12.269510509
        65           65.000000         3.761773417       293.628148906     -1250.785666331     -1246.978386117        12.280859966
        66           66.000000         3.900108828       304.426026964     -1250.974892188     -1247.028316374        13.008970143
        67           67.000000         3.895496633       304.066018477     -1250.990217385     -1247.047266456        12.300650192
        68           68.000000         3.616439146       282.283969309     -1250.608053101     -1246.943202253        12.261363540
        69           69.000000         3.821076406       298.257089746     -1250.889868677     -1247.019462809        12.345985621
        70           70.000000         3.878151380       302.712121223     -1250.951136245     -1247.022710989        12.282151995
        71           71.000000         3.769934825       294.265193936     -1250.771254322     -1246.950102332        12.296617951
        72           72.000000         3.811992251       297.548019037     -1250.880665745     -1247.016529684        12.339429516
        73           73.000000         3.650023264       284.905403793     -1250.637524566     -1246.934454179        12.284670370
        74           74.000000         3.851232291       300.610930871     -1250.878876265     -1246.973715657        12.317011990
        75           75.000000         3.984685512       311.027725745     -1251.032608017     -1246.993071337        12.293730089
        76           76.000000         3.694480067       288.375514120     -1250.637062285     -1246.886806819        12.961501762
        77           77.000000         3.764662907       293.853690227     -1250.761479379     -1246.940161288        12.358155059
        78           78.000000         3.800483308       296.649679485     -1250.789114540     -1246.931097855        12.313935725
        79           79.000000         3.863141255       301.540494240     -1250.827386265     -1246.905827659        12.272758404
        80           80.000000         3.986802468       311.192966416     -1251.011235347     -1246.965102105        12.342289500
        81           81.000000         3.685557591       287.679063310     -1250.612868184     -1246.867066833        12.298197240
        82           82.000000         3.770725432       294.326905393     -1250.703040672     -1246.871203270        12.295458630
        83           83.000000         3.984565970       311.018394850     -1250.959267177     -1246.912695222        12.337180451
        84           84.000000         3.840927572       299.806588013     -1250.763880460     -1246.860022955        12.285397062
        85           85.000000         3.883170360       303.103881652     -1250.880851165     -1246.933832285        12.349090299
        86           86.000000         3.764759799       293.861253247     -1250.729178073     -1246.899653960        13.000539782
        87           87.000000         3.837081738       299.506398412     -1250.795794279     -1246.893046470        12.980181189
        88           88.000000         4.114534802       321.163213057     -1251.166294087     -1246.985143247        12.257508473
        89           89.000000         3.846881011       300.271288319     -1250.816165549     -1246.901673313        12.293350520
        90           90.000000         3.795818805       296.285588103     -1250.789732278     -1246.925338079        12.268248625
        91           91.000000         3.903586006       304.697440728     -1250.950462845     -1246.977333160        12.290491430
        92           92.000000         3.868947904       301.993736750     -1250.877252110     -1246.937771968        12.276265360
        93           93.000000         4.043023484       315.581341535     -1251.127217103     -1247.012641700        12.293100631
        94           94.000000         3.828579438       298.842744782     -1250.860908598     -1246.959729479        12.250412676
        95           95.000000         3.743397009       292.193764042     -1250.731023549     -1246.914015982        12.273313576
        96           96.000000         4.012845272       313.225757700     -1251.140178651     -1247.052695926        12.922586115
        97           97.000000         3.860724529       301.351854848     -1250.918839762     -1246.982408993        12.893101003
        98           98.000000         3.823937467       298.480412088     -1250.918592909     -1247.017897019        12.933401978
        99           99.000000         3.776151724       294.750458787     -1250.903888737     -1247.049939554        12.291172815
       100          100.000000         3.693220189       288.277173317     -1250.774002265     -1247.001974877        12.931081399
       101          101.000000         4.001337954       312.327545048     -1251.171533406     -1247.090365909        12.978197552
       102          102.000000         3.858859829       301.206304239     -1250.952919801     -1247.013162926        12.888920499
       103          103.000000         3.680626027       287.294126242     -1250.729610917     -1246.967059173        12.906911375
       104          104.000000         3.851382074       300.622622234     -1250.972880798     -1247.038566491        12.259051982
       105          105.000000         3.787942119       295.670767230     -1250.818782099     -1246.946888707        12.277113562
       106          106.000000         3.910777063       305.258744272     -1250.974045243     -1246.978294051        12.253551748
       107          107.000000         3.834693602       299.319990599     -1250.877842754     -1246.957135094        12.268549953
       108          108.000000         3.643138474       284.368006157     -1250.632754592     -1246.902600193        12.875756441
       109          109.000000         3.973523004       310.156427518     -1251.040733559     -1246.979198861        12.900638333
       110          110.000000         3.962903190       309.327489651     -1250.954648354     -1246.902675497        12.881395504
       111          111.000000         3.829427079       298.908908049     -1250.784306602     -1246.864747742        12.967160765
       112          112.000000         3.863327558       301.555036293     -1250.854591470     -1246.900079885        12.903525515
       113          113.000000         3.731296676       291.249263133     -1250.666650983     -1246.843129393        12.929174822
       114          114.000000         3.988475291       311.323539900     -1251.003103865     -1246.921356153        12.895234235
       115          115.000000         4.007183373       312.783813823     -1251.044030628     -1246.942463683        12.873995051
       116          116.000000         3.728169279       291.005151744     -1250.648545705     -1246.824890286        12.904217498
       117          117.000000         3.892708075       303.848355437     -1250.894417826     -1246.905147023        12.889337856
       118          118.000000         3.880515050       302.896619354     -1250.880816402     -1246.902632854        12.956295064
       119          119.000000         3.891495492       303.753706264     -1250.881173058     -1246.890893260        12.901151245
       120          120.000000         3.903961989       304.726788428     -1250.927498590     -1246.923621237        12.926146079
       121          121.000000         3.602047287       281.160601634     -1250.527693189     -1246.824635201        12.866759874
       122          122.000000         3.829239854       298.894294073     -1250.859524697     -1246.928222037        12.878963280
       123          123.000000         3.975483238       310.309435121     -1251.024845197     -1246.946196973        12.957475182
       124          124.000000         3.780812053       295.114224428     -1250.750498229     -1246.865406071        12.924373616
       125          125.000000         3.828366458       298.826120469     -1250.888365817     -1246.954629861        12.870625678
       126          126.000000         3.685131756       287.645824397     -1250.689282925     -1246.897711808        12.874406910
       127          127.000000         3.794754780       296.202534796     -1250.830341251     -1246.928105204        12.941726219
       128          128.000000         3.964040911       309.416295391     -1251.072146460     -1246.999550117        12.255817048
       129          129.000000         3.651978770       285.058042299     -1250.642823362     -1246.881221231        12.200048657
       130          130.000000         3.759289612       293.434273517     -1250.793047731     -1246.923121030        12.268263001
       131          131.000000         3.927990351       306.602340853     -1251.002728337     -1246.963063160        12.263493216
       132          132.000000         3.900943679       304.491191861     -1250.943250097     -1246.929561076        12.937257983
       133          133.000000         4.011298156       313.104996375     -1251.128241910     -1247.003099589        12.926578049
       134          134.000000         3.735139189       291.549193487     -1250.721469888     -1246.871385402        12.227216011
       135          135.000000         3.761476346       293.604960727     -1250.722450464     -1246.844975587        12.925401056
       136          136.000000         4.045781797       315.796643775     -1251.094570502     -1246.931701954        12.865974855
       137          137.000000         3.861188983       301.388108189     -1250.863246810     -1246.883838373        12.895815149
       138          138.000000         3.892086645       303.799849236     -1250.951763635     -1246.940336466        12.848487237
       139          139.000000         3.868600088       301.966587719     -1250.894328568     -1246.905256205        12.884849014
       140          140.000000         3.853647765       300.799472514     -1250.769894273     -1246.794641704        12.936961301
       141          141.000000         4.103978839       320.339259125     -1251.116092899     -1246.889331912        12.852346478
       142          142.000000         3.821222485       298.268492127     -1250.738918642     -1246.793700921        12.863059370
       143          143.000000         3.720338442       290.393909714     -1250.572103370     -1246.726614062        12.249793550
       144          144.000000         3.938621809       307.432187644     -1250.856963307     -1246.792032836        12.916026499
       145          145.000000         3.869101296       302.005709897     -1250.723726910     -1246.727123920        12.884758646
       146          146.000000         3.990358939       311.470569549     -1250.928776172     -1246.809703723        12.208911477
       147          147.000000         3.833264339       299.208428369     -1250.733773869     -1246.770566497        12.260961818
       148          148.000000         3.684746936       287.615787035     -1250.531264796     -1246.715394537        12.267194130
       149          149.000000         3.992179633       311.612685163     -1250.948311927     -1246.823823810        12.259935161
       150          150.000000         3.855334420       300.931125738     -1250.753266379     -1246.764392801        12.230556009
       151          151.000000         3.763677047       293.776738188     -1250.666992521     -1246.768577816        12.205841135
       152          152.000000         3.842724256       299.946829571     -1250.795415695     -1246.816768890        12.266639231
       153          153.000000         3.762006959       293.646378171     -1250.647233061     -1246.748123113        12.277673025
       154          154.000000         4.019752118       313.764876985     -1250.999083972     -1246.841029066        12.270089818
       155          155.000000         3.905592311       304.854044475     -1250.865029688     -1246.819886437        12.263091786
       156          156.000000         3.659173029       285.619595792     -1250.556040611     -1246.756116618        12.246518655
       157          157.000000         3.893285298       303.893410956     -1250.893870881     -1246.858661782        12.216997232
       158          158.000000         3.858044040       301.142627204     -1250.862846275     -1246.861672110        12.300289512
       159          159.000000         3.890698720       303.691513648     -1250.922767410     -1246.887728869        12.909190562
       160          160.000000         3.877768261       302.682216630     -1250.990399715     -1246.967071498        12.957153920
       161          161.000000         3.659144848       285.617396131     -1250.672018729     -1246.866129497        12.885382704
       162          162.000000         3.963186395       309.349595490     -1251.071391652     -1246.960288075        12.941535693
       163          163.000000         3.989424809       311.397655246     -1251.093800264     -1246.955218425        12.247923702
       164          164.000000         3.760266239       293.510504890     -1250.801520202     -1246.890867374        12.265270675
       165          165.000000         3.849261614       300.457108140     -1250.963747610     -1246.962902389        12.216898929
       166          166.000000         3.752319859       292.890244066     -1250.790362329     -1246.885268335        12.250421360
       167          167.000000         3.925041494       306.372165566     -1250.993715826     -1246.914711318        12.273052165
       168          168.000000         3.984219446       310.991346593     -1251.093989108     -1246.954570142        12.308193253
       169          169.000000         3.643604133       284.404353548     -1250.707829058     -1246.907817145        12.855674243
       170          170.000000         3.816155322       297.872970745     -1250.947307238     -1246.973591471        12.897116410
       171          171.000000         3.885907071       303.317497712     -1251.020952177     -1246.976305044        13.534707859
       172          172.000000         3.818877121       298.085422866     -1250.921721158     -1246.942921590        12.907923957
       173          173.000000         3.895143541       304.038457628     -1251.026504013     -1246.970258451        12.897701504
       174          174.000000         3.653299517       285.161134243     -1250.670588334     -1246.855033046        12.919613888
       175          175.000000         3.809764088       297.374097968     -1250.867081039     -1246.893951044        12.915587815
       176          176.000000         3.997138212       311.999730907     -1251.127673877     -1246.966017612        12.875619166
       177          177.000000         3.738315884       291.797152925     -1250.729974365     -1246.825982597        12.909563029
       178          178.000000         3.797416017       296.410259720     -1250.854025722     -1246.889822198        12.899075264
       179          179.000000         3.772484048       294.464175509     -1250.820786825     -1246.880413269        12.873774601
       180          180.000000         3.819912131       298.166211365     -1250.863870777     -1246.874979804        12.922001433
       181          181.000000         4.031397659       314.673878714     -1251.133434002     -1246.931935430        12.230482863
       182          182.000000         3.722126311       290.533463151     -1250.718784923     -1246.825428972        12.905186394
       183          183.000000         3.718522108       290.252134353     -1250.751973795     -1246.861158950        12.250534780
       184          184.000000         3.904909535       304.800749848     -1251.006342855     -1246.928075669        12.894260282
       185          185.000000         3.782908461       295.277861154     -1250.802336350     -1246.844995964        12.862735216
       186          186.000000         3.870371399       302.104848799     -1250.942479793     -1246.896618293        12.228034941
       187          187.000000         3.694094217       288.345396272     -1250.697165770     -1246.826541077        12.326189134
       188          188.000000         3.669147230       286.398139787     -1250.636993340     -1246.790332374        12.249394834
       189          189.000000         3.976167327       310.362832212     -1251.027992570     -1246.873321638        12.240764912
       190          190.000000         3.775441436       294.695016680     -1250.770112145     -1246.815154102        12.268843789
       191          191.000000         3.733070041       291.387684564     -1250.744715059     -1246.831161194        12.246635729
       192          192.000000         3.787158044       295.609565698     -1250.783559919     -1246.814973297        12.243989637
       193          193.000000         3.718515843       290.251645327     -1250.625116503     -1246.724247721        12.306294387
       194          194.000000         3.973327935       310.141201256     -1250.938528121     -1246.781921732        12.213058079
       195          195.000000         3.815951732       297.857079344     -1250.712939141     -1246.712760750        12.282711431
       196          196.000000         3.680288913       287.267812562     -1250.559254222     -1246.693835680        12.228221897
       197          197.000000         3.941308208       307.641876576     -1250.939782842     -1246.812454587        12.282039199
       198          198.000000         3.840776798       299.794819207     -1250.762195418     -1246.734483735        12.251397267
       199          199.000000         3.868449389       301.954824783     -1250.826345403     -1246.770057318        12.289014649
       200          200.000000         3.835913147       299.415183160     -1250.796092793     -1246.771439440        12.200686667
       201          201.000000         3.693154371       288.272035898     -1250.584673537     -1246.701907249        12.305863675
       202          202.000000         4.012781245       313.220760015     -1251.008859101     -1246.805597745        12.217412787
       203          203.000000         3.953879087       308.623106288     -1250.915144198     -1246.769867732        12.274588291
       204          204.000000         3.794012765       296.144616250     -1250.687643066     -1246.701326761        12.238580612
       205          205.000000         3.929529950       306.722515465     -1250.891076413     -1246.768347911        12.240680022
       206          206.000000         3.821951694       298.325411061     -1250.737547709     -1246.721493885        12.207613699
       207          207.000000         3.956845453       308.854648273     -1250.867132222     -1246.715282135        12.219346251
       208          208.000000         3.935185939       307.163998079     -1250.857207468     -1246.726088311        12.954019126
       209          209.000000         3.694252133       288.357722554     -1250.528484357     -1246.637394754        12.230629617
       210          210.000000         3.966002605       309.569416890     -1250.833864533     -1246.670140082        12.195926249
       211          211.000000         3.981359778       310.768132966     -1250.817694955     -1246.637683709        12.198879784
       212          212.000000         3.883978042       303.166925913     -1250.725852537     -1246.642284622        12.236618467
       213          213.000000         3.921231686       306.074788048     -1250.827957601     -1246.706200221        12.281872975
       214          214.000000         3.691147154       288.115361032     -1250.509156973     -1246.616569641        12.208790466
       215          215.000000         3.878567949       302.744636840     -1250.759020264     -1246.678129830        12.253388837
       216          216.000000         3.962503253       309.296272310     -1250.834401992     -1246.668665025        12.204372544
       217          217.000000         3.701170418       288.897734653     -1250.487730105     -1246.582427582        12.194813678
       218          218.000000         3.833502405       299.227010777     -1250.689441883     -1246.650949890        12.204766175
       219          219.000000         3.791050789       295.913416941     -1250.638044315     -1246.641149831        12.295782788
       220          220.000000         3.801612865       296.737847968     -1250.700275036     -1246.691984420        12.226241194
       221          221.000000         3.903945521       304.725502983     -1250.819268893     -1246.707812786        12.863349069
       222          222.000000         3.612336314       281.963719599     -1250.427755917     -1246.607101606        12.887399910
       223          223.000000         3.747549597       292.517897536     -1250.615130087     -1246.658513508        12.862496611
       224          224.000000         3.915240536       305.607144143     -1250.778566629     -1246.653504735        12.197635962
       225          225.000000         3.780257555       295.070942660     -1250.563109728     -1246.572273651        12.217877069
       226          226.000000         3.890007136       303.637531529     -1250.758951379     -1246.657624954        12.266574848
       227          227.000000         3.760366173       293.518305352     -1250.578860273     -1246.606439948        12.241857473