#     Step Nr.          Time[fs]        Kin.[a.u.]          Temp[K]            Pot.[a.u.]        Cons Qty[a.u.]        UsedTime[s]
         0            0.000000         3.844830508       300.000000000     -1263.082242189     -1259.236936659         0.000000000
         1            1.000000         3.880465917       302.780518565     -1263.156100221     -1259.274299696        50.054115595
         2            2.000000         3.847462173       300.205340474     -1263.114430957     -1259.264768814        13.366416866
         3            3.000000         3.810939445       297.355587206     -1263.057336032     -1259.243338540        13.418637102
         4            4.000000         3.917436030       305.665179917     -1263.182662708     -1259.261305868        13.418210603
         5            5.000000         3.836906478       299.381712905     -1263.124617739     -1259.282914842        14.094663342
         6            6.000000         3.845631106       300.062468148     -1263.124426173     -1259.273130433        14.119291680
         7            7.000000         3.920039311       305.868305707     -1263.243025053     -1259.316441612        15.323002489
         8            8.000000         3.862929007       301.412168801     -1263.106312976     -1259.235946480        13.418334441
         9            9.000000         3.940507193       307.465350016     -1263.250648277     -1259.301800708        14.149606004
        10           10.000000         3.886619202       303.260639965     -1263.188107203     -1259.292225889        13.478208233
        11           11.000000         3.821096268       298.148092097     -1263.131494563     -1259.300220380        14.066488860
        12           12.000000         3.932331042       306.827390693     -1263.250811028     -1259.307381133        13.431552283
        13           13.000000         3.872505264       302.159373953     -1263.132276356     -1259.247731822        13.449873833
        14           14.000000         3.886894560       303.282125330     -1263.138797261     -1259.238921030        13.420861896
        15           15.000000         3.916064430       305.558158312     -1263.201474321     -1259.271471647        13.409299836
        16           16.000000         3.834891734       299.224508752     -1263.113281817     -1259.263490152        14.127321826
        17           17.000000         3.948770460       308.110106648     -1263.269382316     -1259.304743289        13.405062765
        18           18.000000         3.920585582       305.910929533     -1263.229475969     -1259.292025045        13.464673828
        19           19.000000         3.842158551       299.791515604     -1263.128184820     -1259.268163776        12.858504608
        20           20.000000         3.918309261       305.733315383     -1263.231205090     -1259.294033257        12.753606027
        21           21.000000         3.855027956       300.795674671     -1263.134436092     -1259.259532746        12.796584070
        22           22.000000         3.914844159       305.462944349     -1263.202184972     -1259.266448107        12.794621238
        23           23.000000         3.946169522       307.907163692     -1263.270994733     -1259.302889967        13.443411028
        24           24.000000         3.828292692       298.709606365     -1263.119844504     -1259.268569186        12.782184150
        25           25.000000         3.923949697       306.173420785     -1263.254819710     -1259.306841298        13.445494790
        26           26.000000         3.911710690       305.218449699     -1263.268325124     -1259.331515478        13.506286649
        27           27.000000         3.872448090       302.154912847     -1263.190944940     -1259.292322353        13.448588978
        28           28.000000         3.953946284       308.513959915     -1263.275053636     -1259.293843322        12.805860689
        29           29.000000         3.846295369       300.114298462     -1263.184928308     -1259.310266400        13.481776200
        30           30.000000         3.890388527       303.554748526     -1263.225923238     -1259.306071215        13.383573435
        31           31.000000         3.936876136       307.182030033     -1263.296198234     -1259.328740259        14.071119528
        32           32.000000         3.824929669       298.447200274     -1263.115371854     -1259.258737699        13.413575457
        33           33.000000         3.923098923       306.107037603     -1263.261889878     -1259.305965459        13.410820676
        34           34.000000         3.881692861       302.876253148     -1263.181994552     -1259.266335721        12.814728089
        35           35.000000         3.842061458       299.783939729     -1263.126877407     -1259.249715032        12.753312852
        36           36.000000         3.926757788       306.392527279     -1263.224416731     -1259.261415099        12.835765583
        37           37.000000         3.792242076       295.896690469     -1262.973137383     -1259.143506280        12.729281913
        38           38.000000         3.851695109       300.535623130     -1263.057504784     -1259.167293656        12.764456669
        39           39.000000         3.914866004       305.464648877     -1263.142496386     -1259.187969310        12.802722489
        40           40.000000         3.816975460       297.826558416     -1263.046649842     -1259.188864984        12.823359989
        41           41.000000         3.916027373       305.555266814     -1263.195190728     -1259.237207809        12.815307621
        42           42.000000         3.863633473       301.467136070     -1263.120386757     -1259.213635952        12.753061637
        43           43.000000         3.842867011       299.846794518     -1263.089013384     -1259.201875534        12.775980838
        44           44.000000         3.940415792       307.458218286     -1263.272219967     -1259.286367762        12.825979790
        45           45.000000         3.791727796       295.856562840     -1263.065007664     -1259.226674693        13.441673240
        46           46.000000         3.837648748       299.439629931     -1263.134529272     -1259.249130064        14.071541669
        47           47.000000         3.914894878       305.466901844     -1263.231644627     -1259.267838511        13.399226565
        48           48.000000         3.853851271       300.703861632     -1263.149446690     -1259.245512814        13.375145556
        49           49.000000         3.968687046       309.664135080     -1263.332370070     -1259.312417199        13.437945396
        50           50.000000         3.858402697       301.058995082     -1263.169970772     -1259.259101697        14.073872035
        51           51.000000         3.796655165       296.241029858     -1263.077887106     -1259.227590278        13.430133345
        52           52.000000         3.922561838       306.065130559     -1263.258422249     -1259.281041560        12.799864613
        53           53.000000         3.810111325       297.290971624     -1263.094128766     -1259.228012815        13.425934635
        54           54.000000         3.872745443       302.178114324     -1263.206709436     -1259.276787000        14.083046060
        55           55.000000         3.908209806       304.945286724     -1263.223211749     -1259.256635996        12.790294049
        56           56.000000         3.818457265       297.942178966     -1263.063707626     -1259.185697644        12.797673374
        57           57.000000         3.962673619       309.194926332     -1263.211748408     -1259.188329952        12.856834870
        58           58.000000         3.866538584       301.693812713     -1263.103466151     -1259.174969223        12.794588808
        59           59.000000         3.800842237       296.567733904     -1263.044468781     -1259.180478526        12.824802469
        60           60.000000         3.919746613       305.845467435     -1263.228962411     -1259.244878088        12.824029135
        61           61.000000         3.825213849       298.469373916     -1263.116940273     -1259.226189723        12.821423687
        62           62.000000         3.930460112       306.681407946     -1263.242877321     -1259.245683080        12.843151143
        63           63.000000         3.956446914       308.709076157     -1263.186949042     -1259.162539312        12.148452381
        64           64.000000         3.845249267       300.032674457     -1263.044955891     -1259.130513959        12.829298753
        65           65.000000         4.002411252       312.295528498     -1263.238013305     -1259.165170179        12.800682025
        66           66.000000         3.907056017       304.855260186     -1263.108180823     -1259.129423296        12.793797787
        67           67.000000         3.832050277       299.002798818     -1262.980127575     -1259.075125679        12.124731613
        68           68.000000         3.912979313       305.317436328     -1263.152145936     -1259.164968031        12.749205917
        69           69.000000         3.792455050       295.913308189     -1262.920774342     -1259.052877068        12.753837930
        70           70.000000         3.922051588       306.025317366     -1263.018648775     -1259.019919885        12.852239972
        71           71.000000         3.941377074       307.533224087     -1263.049046868     -1259.029726603        12.778884677
        72           72.000000         3.775601297       294.598262925     -1262.827438328     -1258.972642928        12.167850744
        73           73.000000         3.882749176       302.958674098     -1263.039320300     -1259.076148914        12.182971423
        74           74.000000         3.782197862       295.112972096     -1262.907890802     -1259.044045519        12.820578991
        75           75.000000         3.739697370       291.796792781     -1262.859831966     -1259.037302058        12.756241722
        76           76.000000         3.828792068       298.748571106     -1263.000484512     -1259.087691474        12.815488733
        77           77.000000         3.685636042       287.578557799     -1262.789405184     -1259.018623218        12.801175123
        78           78.000000         3.830860688       298.909978957     -1262.994965067     -1259.077843985        12.852101346
        79           79.000000         3.888143349       303.379564365     -1263.051725133     -1259.076188479        12.762230119
        80           80.000000         3.731749189       291.176621293     -1262.838825243     -1259.018567716        12.799958743
        81           81.000000         3.813740738       297.574163269     -1262.982527156     -1259.079197083        12.832118846
        82           82.000000         3.702502962       288.894630387     -1262.826237536     -1259.033085739        12.890615990
        83           83.000000         3.740323746       291.845666869     -1262.876085354     -1259.044094241        12.815286873
        84           84.000000         3.897689682       304.124434634     -1263.140275693     -1259.149897842        12.833956555
        85           85.000000         3.739788146       291.803875745     -1262.902764993     -1259.069271807        12.867489919
        86           86.000000         3.849213632       300.342001300     -1263.057285451     -1259.113377240        12.849989431
        87           87.000000         3.894735993       303.893967631     -1263.098193502     -1259.107760592        12.844062762
        88           88.000000         3.791156187       295.811961964     -1262.943915511     -1259.056068074        12.951760238
        89           89.000000         3.902769402       304.520789153     -1263.137320439     -1259.136876628        12.886816205
        90           90.000000         3.756283943       293.090990765     -1262.983559244     -1259.128623826        12.863019124
        91           91.000000         3.790093899       295.729075003     -1263.017668391     -1259.127980083        12.831408784
        92           92.000000         3.981064170       310.629883044     -1263.267544287     -1259.185928618        12.877123276
        93           93.000000         3.840235741       299.641484800     -1263.034734404     -1259.092971662        12.887483744
        94           94.000000         3.902783716       304.521906023     -1263.142415251     -1259.137141627        12.886702377
        95           95.000000         3.854464795       300.751733008     -1263.060377778     -1259.102456636        12.850222172
        96           96.000000         3.737521552       291.627020535     -1262.899287960     -1259.057371000        12.941089883
        97           97.000000         3.907394979       304.881708361     -1263.192878622     -1259.180164029        12.851675224
        98           98.000000         3.768173801       294.018718860     -1262.987665309     -1259.113246192        12.866361910
        99           99.000000         3.770760524       294.220552702     -1262.999190876     -1259.121294369        12.933111681
       100          100.000000         3.948493410       308.088489304     -1263.234090749     -1259.177566920        12.893610321
       101          101.000000         3.841649218       299.751773947     -1263.042146528     -1259.091557567        12.883018328
       102          102.000000         3.930267430       306.666373569     -1263.176497330     -1259.136385860        12.906728456
       103          103.000000         3.838565515       299.511162321     -1263.061680346     -1259.112361435        12.871268114
       104          104.000000         3.685237903       287.547492275     -1262.877962044     -1259.081099806        12.935439572
       105          105.000000         3.889169271       303.459613844     -1263.152209678     -1259.150569214        12.916181095
       106          106.000000         3.805459778       296.928026054     -1263.029847183     -1259.111061174        12.886158820
       107          107.000000         3.811383730       297.390253327     -1263.082715242     -1259.157171494        13.573727371
       108          108.000000         3.938590262       307.315777914     -1263.258324602     -1259.204736721        13.554195689
       109          109.000000         3.825207589       298.468885513     -1263.069585136     -1259.128535104        12.904916286
       110          110.000000         3.978125860       310.400615969     -1263.343183806     -1259.248370812        13.581116101
       111          111.000000         3.911442179       305.197498574     -1263.250238123     -1259.221240524        13.598676030
       112          112.000000         3.734317242       291.376998314     -1263.006891901     -1259.154174530        13.539874686
       113          113.000000         3.921446822       305.978129390     -1263.284667388     -1259.243995012        13.603956107
       114          114.000000         3.867581269       301.775170134     -1263.180337326     -1259.192688647        12.927893447
       115          115.000000         3.923429993       306.132869914     -1263.249150121     -1259.204810746        12.901517704
       116          116.000000         3.999543528       312.071769025     -1263.455524078     -1259.334205898        13.506447094
       117          117.000000         3.801418690       296.612712687     -1263.096687315     -1259.172625453        13.628709227
       118          118.000000         3.949686314       308.181567860     -1263.337918187     -1259.264733590        14.204729546
       119          119.000000         3.921712918       305.998892014     -1263.270221563     -1259.224133059        13.530662829
       120          120.000000         3.773035010       294.398023648     -1263.079963874     -1259.181691262        13.529756555
       121          121.000000         3.932196166       306.816866741     -1263.314260074     -1259.255977888        12.873769496
       122          122.000000         3.851709283       300.536729081     -1263.156971589     -1259.178315676        12.961094132
       123          123.000000         3.948155656       308.062135433     -1263.275173862     -1259.199211527        12.861076029
       124          124.000000         4.028074521       314.297952493     -1263.373585058     -1259.216811830        12.947040480
       125          125.000000         3.760530320       293.422322134     -1263.001558423     -1259.111438674        12.871651266
       126          126.000000         3.870038112       301.966869825     -1263.184209558     -1259.183725281        12.916339699
       127          127.000000         3.863085000       301.424340444     -1263.169590635     -1259.175197585        12.253193947
       128          128.000000         3.764116188       293.702116087     -1263.026744805     -1259.130477572        12.909216048
       129          129.000000         3.915580977       305.520435995     -1263.243436980     -1259.194874581        12.951347509
       130          130.000000         3.772098644       294.324961971     -1263.049376154     -1259.143466433        12.216169143
       131          131.000000         3.872005082       302.120346316     -1263.155934915     -1259.149310672        12.963478439
       132          132.000000         3.999825573       312.093776158     -1263.314863082     -1259.179588396        12.880143240
       133          133.000000         3.739218246       291.759408204     -1263.015321877     -1259.139825734        12.885894135
       134          134.000000         3.796055814       296.194264421     -1263.162713241     -1259.229593945        12.944550905
       135          135.000000         3.767394354       293.957901058     -1263.130657826     -1259.225431342        12.953001451
       136          136.000000         3.740630987       291.869639929     -1263.087724212     -1259.208521170        13.574639890
       137          137.000000         3.947547147       308.014655385     -1263.416559175     -1259.329705362        13.595289063
       138          138.000000         3.755996444       293.068558113     -1263.149059073     -1259.253017158        13.531760013
       139          139.000000         3.800695358       296.556273423     -1263.212566919     -1259.271120887        13.570924424
       140          140.000000         3.953910960       308.511203676     -1263.347001888     -1259.251630549        12.932126040
       141          141.000000         3.786303574       295.433327884     -1263.138664015     -1259.210185603        12.933637466
       142          142.000000         3.868239912       301.826561948     -1263.284560135     -1259.273452081        12.946608249
       143          143.000000         3.753081574       292.841119951     -1263.143728960     -1259.247096761        12.947264632
       144          144.000000         3.707649874       289.296227721     -1263.108194343     -1259.256349228        12.935845092
       145          145.000000         3.977198712       310.328273491     -1263.473859136     -1259.351828171        13.553517435
       146          146.000000         3.805998660       296.970073329     -1263.152650579     -1259.201166143        12.982192824
       147          147.000000         3.790507510       295.761347736     -1263.150382183     -1259.213762065        13.604817787
       148          148.000000         3.872325039       302.145311529     -1263.273424229     -1259.254369844        12.917849014
       149          149.000000         3.741569909       291.942901056     -1263.093744552     -1259.204839227        12.976588808
       150          150.000000         3.907473844       304.887861938     -1263.326690710     -1259.271292766        13.000129828
       151          151.000000         3.786622731       295.458230685     -1263.169245651     -1259.234108065        12.908488836
       152          152.000000         3.681836766       287.282112280     -1263.019174850     -1259.188267225        12.973579200
       153          153.000000         3.935306861       307.059584464     -1263.360143452     -1259.275228712        12.953387482
       154          154.000000         3.816265706       297.771178518     -1263.152485742     -1259.186063092        12.984451117
       155          155.000000         3.828112015       298.695508703     -1263.224323223     -1259.245521539        13.691277234
       156          156.000000         3.833962081       299.151970894     -1263.256835768     -1259.271659773        13.566684537
       157          157.000000         3.668006474       286.202978198     -1262.987978590     -1259.168257093        12.976119811
       158          158.000000         3.925219539       306.272502530     -1263.334646048     -1259.257234840        12.981839314
       159          159.000000         3.870242234       301.982796832     -1263.277030744     -1259.254104801        12.968133153
       160          160.000000         3.726479584       290.765450595     -1263.087208870     -1259.207568889        13.026464410
       161          161.000000         3.903749342       304.597250827     -1263.339277353     -1259.281910069        12.935185885
       162          162.000000         3.803992192       296.813514963     -1263.170312369     -1259.212240615        12.950476892
       163          163.000000         3.907759352       304.910139230     -1263.313377106     -1259.251084928        13.008070653
       164          164.000000         3.913346698       305.346102220     -1263.346247512     -1259.277903524        12.986403747
       165          165.000000         3.652887278       285.023275056     -1263.002993317     -1259.194657776        12.986628605
       166          166.000000         3.857929082       301.022040396     -1263.292535896     -1259.278742530        12.955249913
       167          167.000000         3.859337282       301.131917790     -1263.264804499     -1259.249182901        12.934578504
       168          168.000000         3.774468342       294.509862084     -1263.130213020     -1259.199049116        12.985033950
       169          169.000000         3.890598104       303.571101174     -1263.305966262     -1259.258273660        12.949522249
       170          170.000000         3.709834677       289.466701006     -1263.037061449     -1259.169739674        12.975751746
       171          171.000000         3.850349042       300.430593798     -1263.207141918     -1259.198938673        12.980562033
       172          172.000000         3.943036430       307.662698414     -1263.305587460     -1259.204322945        12.340393441
       173          173.000000         3.697915233       288.536664325     -1262.943697916     -1259.087181367        12.286912587
       174          174.000000         3.840674378       299.675710278     -1263.171891567     -1259.172271458        12.945335139
       175          175.000000         3.819221734       298.001828090     -1263.125813123     -1259.147304726        12.378865270
       176          176.000000         3.818942605       297.980048525     -1263.084903873     -1259.106343305        12.306148978
       177          177.000000         3.977541396       310.355012065     -1263.318644257     -1259.181152001        12.356900692
       178          178.000000         3.746397925       292.319615924     -1262.994685174     -1259.087993859        12.308568805
       179          179.000000         3.867595545       301.776284031     -1263.167804539     -1259.139592819        12.303830443
       180          180.000000         4.003550947       312.384455299     -1263.343679414     -1259.179177518        12.307197571
       181          181.000000         3.812197446       297.453745049     -1263.079961470     -1259.106461016        13.020932373
       182          182.000000         3.928049341       306.493303063     -1263.298271772     -1259.208573803        12.964758676
       183          183.000000         3.822894771       298.288423610     -1263.151903267     -1259.167006849        12.962037375
       184          184.000000         3.822131108       298.228837341     -1263.130782382     -1259.146307431        13.011910526
       185          185.000000         4.037301729       315.017922384     -1263.378317055     -1259.178322987        12.345397199
       186          186.000000         3.782917117       295.169093307     -1263.031317836     -1259.085338963        13.049884383
       187          187.000000         3.801508018       296.619682668     -1263.081337898     -1259.116419619        12.959330110
       188          188.000000         3.891754760       303.661351414     -1263.180184818     -1259.124677421        12.323049787
       189          189.000000         3.761985704       293.535881167     -1262.993180765     -1259.067102073        12.324087095
       190          190.000000         3.900871075       304.372668709     -1263.198943103     -1259.133652251        13.035793278
       191          191.000000         3.718642088       290.153915499     -1262.991596688     -1259.108210615        13.010145331
       192          192.000000         3.670168281       286.371657202     -1262.918916789     -1259.083714898        13.027257293
       193          193.000000         3.932766467       306.861365527     -1263.248563029     -1259.150495379        12.307457609
       194          194.000000         3.759136904       293.313598308     -1262.974259814     -1259.049547540        12.313335029
       195          195.000000         3.772260325       294.337577408     -1263.032779741     -1259.094691022        12.353699794
       196          196.000000         3.780201287       294.957185675     -1263.086130288     -1259.139864242        13.052436657
       197          197.000000         3.654980331       285.186589339     -1262.878514527     -1259.057255077        12.955065183
       198          198.000000         3.904268528       304.637761274     -1263.211714200     -1259.140979431        13.031570682
       199          199.000000         3.782131414       295.107787375     -1263.028012357     -1259.079224000        12.300338864
       200          200.000000         3.686383251       287.636860188     -1262.934087511     -1259.080875681        12.950872786
       201          201.000000         3.916479155       305.590517947     -1263.226408734     -1259.142951659        13.119645728
       202          202.000000         3.822991124       298.295941689     -1263.054249153     -1259.064123588        12.957313107
       203          203.000000         3.924669561       306.229589488     -1263.147130941     -1259.055171598        12.284065938
       204          204.000000         3.881474518       302.859216515     -1263.113949437     -1259.065018061        12.320798742
       205          205.000000         3.677292210       286.927514890     -1262.820874195     -1258.975961963        12.260773528
       206          206.000000         3.952400479       308.393345606     -1263.218782776     -1259.098620935        12.985850846
       207          207.000000         3.918459072       305.745004654     -1263.177229383     -1259.090850774        13.067498196
       208          208.000000         3.839609530       299.592623550     -1263.072537684     -1259.064840926        12.993281834
       209          209.000000         3.963760675       309.279745845     -1263.252944148     -1259.120925453        13.018349664
       210          210.000000         3.814867912       297.662113071     -1263.088540196     -1259.105229045        12.998164985
       211          211.000000         3.979301667       310.492360430     -1263.286045041     -1259.138114805        12.974486567
       212          212.000000         3.968510184       309.650335075     -1263.330416272     -1259.193067666        12.958605168
       213          213.000000         3.693812544       288.216544502     -1262.981083494     -1259.118214595        12.963548910
       214          214.000000         3.878802316       302.650713058     -1263.279743678     -1259.231690609        13.018668368
       215          215.000000         3.860522611       301.224405269     -1263.165924361     -1259.135952831        12.942337263
       216          216.000000         3.859212426       301.122175694     -1263.144257951     -1259.115397692        12.962639900
       217          217.000000         3.959266704       308.929095471     -1263.344504944     -1259.215385781        12.984584630
       218          218.000000         3.711611846       289.605367847     -1263.002859673     -1259.121182872        12.978730667
       219          219.000000         3.868116706       301.816948540     -1263.218864339     -1259.180491457        12.989736613
       220          220.000000         3.944717460       307.793863819     -1263.321391954     -1259.206220690        13.003345203
       221          221.000000         3.715879952       289.938394762     -1263.011845307     -1259.125307780        13.002640830
       222          222.000000         3.836534531       299.352691052     -1263.209232911     -1259.201858984        12.981064977
       223          223.000000         3.770570378       294.205716188     -1263.096494312     -1259.154909630        13.009815833
       224          224.000000         3.845276996       300.034838049     -1263.236282419     -1259.219829214        13.616748299
       225          225.000000         4.017843942       313.499692673     -1263.411690887     -1259.222502766        12.932510903
       226          226.000000         3.735724809       291.486826314     -1263.030783726     -1259.123527828        13.710522773
       227          227.000000         3.817021624       297.830160487     -1263.158621291     -1259.169901028        12.934644036