#     Step Nr.          Time[fs]        Kin.[a.u.]          Temp[K]            Pot.[a.u.]        Cons Qty[a.u.]        UsedTime[s]
         0            0.000000         3.843405441       300.000000000     -1337.000044898     -1333.156164434         0.000000000
         1            1.000000         3.522739838       274.970197047     -1336.574913564     -1333.050887138        45.615942337
         2            2.000000         3.479128392       271.566071717     -1336.561043828     -1333.079909696        12.111814663
         3            3.000000         3.576589563       279.173479198     -1336.686213526     -1333.106957417        12.175278798
         4            4.000000         3.506628045       273.712578498     -1336.521450727     -1333.011545377        12.122599088
         5            5.000000         3.781979131       295.205321579     -1336.886163641     -1333.100334823        12.168352708
         6            6.000000         3.644028000       284.437438821     -1336.644997714     -1332.996558111        11.578698300
         7            7.000000         3.632794157       283.560572411     -1336.593302518     -1332.955580846        11.509341672
         8            8.000000         3.984458593       311.010013433     -1337.046529600     -1333.056636121        11.525241986
         9            9.000000         3.786696077       295.573506450     -1336.721873836     -1332.929210398        11.548511319
        10           10.000000         3.746879412       292.465585706     -1336.708496473     -1332.955140450        12.146051548
        11           11.000000         3.731800189       291.288565288     -1336.712827573     -1332.974063173        11.529187009
        12           12.000000         3.680291418       287.268008114     -1336.576110839     -1332.888394048        11.534816489
        13           13.000000         4.088019427       319.093534832     -1337.093183773     -1332.997276649        12.176392540
        14           14.000000         3.985786148       311.113636755     -1336.940719808     -1332.946527355        11.485834375
        15           15.000000         3.835973604       299.419902184     -1336.764683287     -1332.919772732        11.511389457
        16           16.000000         4.042349876       315.528762507     -1337.062316710     -1333.010487143        12.212169677
        17           17.000000         3.910203362       305.213963651     -1336.853677771     -1332.933414192        11.511474676
        18           18.000000         3.975442780       310.306277159     -1336.973387621     -1332.987289492        11.544546328
        19           19.000000         3.854875687       300.895318961     -1336.867924171     -1333.001779497        12.142416321
        20           20.000000         3.645427610       284.546686463     -1336.571845697     -1332.914560443        12.155237921
        21           21.000000         4.040795810       315.407458673     -1337.090770074     -1333.037537296        12.156807207
        22           22.000000         4.017207843       313.566281560     -1337.052423532     -1333.022140277        12.132539660
        23           23.000000         3.845897543       300.194522940     -1336.849651031     -1332.990022578        12.144459076
        24           24.000000         3.860743856       301.353363406     -1336.944601663     -1333.069478347        12.204899736
        25           25.000000         3.652837921       285.125104004     -1336.657955061     -1332.990106483        12.149757706
        26           26.000000         3.878745712       302.758512319     -1336.972118763     -1333.077755770        12.175213464
        27           27.000000         3.869487081       302.035822628     -1336.979761648     -1333.094031020        12.164773643
        28           28.000000         3.562188559       278.049397596     -1336.573717201     -1332.994685440        12.139402725
        29           29.000000         3.814596947       297.751330548     -1336.931976590     -1333.099981375        12.189240001
        30           30.000000         3.854512008       300.866931681     -1336.910056566     -1333.037579119        12.125617094
        31           31.000000         3.866777162       301.824297808     -1336.920308992     -1333.034992880        12.165423915
        32           32.000000         3.864828167       301.672167484     -1336.977465956     -1333.093519236        11.485195458
        33           33.000000         3.513271632       274.231148852     -1336.516046932     -1332.983106604        12.153851599
        34           34.000000         3.773573223       294.549191912     -1336.843922385     -1333.050184936        11.494477369
        35           35.000000         3.969288364       309.825889385     -1337.054265420     -1333.064300613        11.555100635
        36           36.000000         3.776398170       294.769695372     -1336.770528149     -1332.972924614        12.137759626
        37           37.000000         3.905529613       304.849150509     -1336.971837514     -1333.044582207        12.163914710
        38           38.000000         3.832977932       299.186072655     -1336.831937372     -1332.976701058        11.514945492
        39           39.000000         3.966832776       309.634216534     -1336.972064026     -1332.982431599        11.497403525
        40           40.000000         4.103478668       320.300217948     -1337.179852485     -1333.052986731        11.489772543
        41           41.000000         3.695744324       288.474196650     -1336.626100376     -1332.906361277        11.497924931
        42           42.000000         3.807527870       297.199548250     -1336.789198908     -1332.957106305        12.123286888
        43           43.000000         4.031203461       314.658720467     -1337.012583877     -1332.956223083        11.529582702
        44           44.000000         4.025023334       314.176325841     -1336.944761746     -1332.893937268        11.475386031
        45           45.000000         4.135719408       322.816793936     -1337.134921141     -1332.972704855        11.524531737
        46           46.000000         3.832773061       299.170081244     -1336.744342520     -1332.884341977        11.516519338
        47           47.000000         3.877306231       302.646152510     -1336.797629692     -1332.892380302        11.452058055
        48           48.000000         4.152743985       324.145660541     -1337.166834477     -1332.985386500        11.463495940
        49           49.000000         3.866827115       301.828196951     -1336.776162042     -1332.879819697        11.499955349
        50           50.000000         3.835378748       299.373470209     -1336.778626065     -1332.912939392        12.140146114
        51           51.000000         3.836793087       299.483867565     -1336.812432953     -1332.944540906        12.140636854
        52           52.000000         3.898107122       304.269782202     -1336.842821203     -1332.912815177        12.119673118
        53           53.000000         4.190460381       327.089643154     -1337.239294089     -1333.016077899        11.472638808
        54           54.000000         3.838974555       299.654143704     -1336.812041752     -1332.939403355        11.476098426
        55           55.000000         3.670680228       286.517799144     -1336.652450432     -1332.947250555        11.505662657
        56           56.000000         3.891796254       303.777182470     -1336.967036052     -1333.039880422        11.494056299
        57           57.000000         3.825476877       298.600571932     -1336.813653808     -1332.951955581        11.484683074
        58           58.000000         3.934031059       307.073853014     -1336.988499696     -1333.017377214        11.465181462
        59           59.000000         3.770888758       294.339653885     -1336.805537773     -1332.996679779        11.453582577
        60           60.000000         3.664104922       286.004558514     -1336.633303412     -1332.930392268        11.469040491
        61           61.000000         4.053195162       316.375299794     -1337.145700935     -1333.052851808        11.481483340
        62           62.000000         3.895952019       304.101564008     -1336.922753013     -1332.986242127        11.458428234
        63           63.000000         3.700548929       288.849223840     -1336.716843779     -1332.974858984        11.474136136
        64           64.000000         3.727714001       290.969614660     -1336.819407362     -1333.049419654        12.125088677
        65           65.000000         3.674073733       286.782681843     -1336.703454296     -1332.986293671        12.141236961
        66           66.000000         4.000662992       312.274860406     -1337.105085217     -1333.060513984        11.473239966
        67           67.000000         3.920522116       306.019401969     -1337.001619575     -1333.036317011        11.457619876
        68           68.000000         3.670194690       286.479900131     -1336.682234599     -1332.966409878        12.094250575
        69           69.000000         3.925308059       306.392972491     -1337.013639237     -1333.041870265        12.166069321
        70           70.000000         3.897633336       304.232800474     -1336.950877338     -1333.005915115        12.751053981
        71           71.000000         3.891410978       303.747109477     -1336.977206812     -1333.037588436        12.783194244
        72           72.000000         3.843574685       300.013210419     -1336.951301441     -1333.058635550        12.116236806
        73           73.000000         3.624948634       282.948184018     -1336.633942766     -1332.959050806        12.118957415
        74           74.000000         3.981791231       310.801810369     -1337.077097391     -1333.044521400        12.112078466
        75           75.000000         4.063668981       317.192841806     -1337.162688861     -1333.047320309        12.166010320
        76           76.000000         3.825573971       298.608150695     -1336.868378928     -1332.990168634        12.111267582
        77           77.000000         3.879648419       302.828973766     -1336.968013966     -1333.034807392        12.143607333
        78           78.000000         3.772717636       294.482408372     -1336.786762768     -1332.959565264        12.120656721
        79           79.000000         3.944669024       307.904207670     -1337.007806888     -1333.007732575        12.128598891
        80           80.000000         4.019312606       313.730570532     -1337.120522753     -1333.044828199        11.512916721
        81           81.000000         3.693520196       288.300590601     -1336.694369581     -1332.943493301        12.152035937
        82           82.000000         3.893552608       303.914276051     -1336.973889685     -1333.022036207        12.108071983
        83           83.000000         4.012747930       313.218159595     -1337.071511184     -1332.999466221        11.496777788
        84           84.000000         3.930046157       306.762808457     -1336.955699543     -1332.965322654        12.153429747
        85           85.000000         3.944794846       307.914028822     -1337.052538726     -1333.046364567        11.496126018
        86           86.000000         3.653668138       285.189907299     -1336.671021527     -1332.954946453        11.472887792
        87           87.000000         3.791318790       295.934335939     -1336.843427138     -1332.988717839        11.479738936
        88           88.000000         4.006511790       312.731392839     -1337.127250959     -1333.056323579        11.493250705
        89           89.000000         3.762272233       293.667084301     -1336.792504328     -1332.964770769        12.149398215
        90           90.000000         3.813663493       297.678469065     -1336.918161480     -1333.038022272        12.123038173
        91           91.000000         3.795996015       296.299420334     -1336.888161337     -1333.024675072        11.479124904
        92           92.000000         3.826102019       298.649367914     -1336.894127882     -1332.999524453        12.151024245
        93           93.000000         3.984025966       310.976244379     -1337.131209132     -1333.077642594        12.144265346
        94           94.000000         3.649526101       284.866597365     -1336.710721266     -1332.990620085        12.152493343
        95           95.000000         3.664265010       286.017054353     -1336.740405513     -1333.004599837        12.121953011
        96           96.000000         3.899575350       304.384385899     -1337.006388970     -1333.034301208        11.460199900
        97           97.000000         3.834701852       299.320634594     -1336.847864143     -1332.939649369        11.474614292
        98           98.000000         3.933633176       307.042795957     -1337.009457715     -1333.001301179        12.161534511
        99           99.000000         3.773285655       294.526745580     -1336.805569577     -1332.956743495        12.122329891
       100          100.000000         3.750033614       292.711789384     -1336.728543143     -1332.901983582        11.486710757
       101          101.000000         4.034436037       314.911041673     -1337.109020658     -1332.997046880        11.477714255
       102          102.000000         3.833161615       299.200410197     -1336.797698772     -1332.885947265        12.139227509
       103          103.000000         3.783112026       295.293750575     -1336.759868197     -1332.897142803        12.154722951
       104          104.000000         3.875888561       302.535495188     -1336.878736780     -1332.922211021        12.129837155
       105          105.000000         3.856192473       300.998101716     -1336.788600830     -1332.850730775        11.458773404
       106          106.000000         4.073877889       317.989706130     -1337.091211226     -1332.934576595        11.470662802
       107          107.000000         3.879779541       302.839208632     -1336.844625927     -1332.880967382        12.153892577
       108          108.000000         3.720224822       290.385041010     -1336.624404709     -1332.819217123        12.132337332
       109          109.000000         3.963512795       309.375072890     -1336.939568747     -1332.890008920        12.087835230
       110          110.000000         3.883065632       303.095707009     -1336.796369552     -1332.826130290        12.106272556
       111          111.000000         3.900927064       304.489895006     -1336.851521931     -1332.862289893        12.117271997
       112          112.000000         3.869914958       302.069220956     -1336.836389319     -1332.877026443        11.467471078
       113          113.000000         3.744940965       292.314278731     -1336.640458164     -1332.804943277        12.080842987
       114          114.000000         4.015632731       313.443334992     -1336.994142239     -1332.886794804        12.114496469
       115          115.000000         3.912538779       305.396256435     -1336.865251504     -1332.859803815        12.123541720
       116          116.000000         3.708643076       289.481018777     -1336.615472431     -1332.812758197        12.168058500
       117          117.000000         3.809653876       297.365495342     -1336.789612001     -1332.884756530        12.111706957
       118          118.000000         3.743729892       292.219747521     -1336.668609024     -1332.828549723        12.096898563
       119          119.000000         3.886196403       303.340081769     -1336.857512636     -1332.873859521        12.130126223
       120          120.000000         3.859510425       301.257087039     -1336.840835739     -1332.882717139        12.095292844
       121          121.000000         3.635601763       283.779722328     -1336.540559948     -1332.805234786        12.103041142
       122          122.000000         3.850830325       300.579555058     -1336.856737537     -1332.905097444        11.461538732
       123          123.000000         3.843760117       300.027684512     -1336.819769823     -1332.874084873        12.124727815
       124          124.000000         3.750497468       292.747995878     -1336.703308704     -1332.849785556        12.736118294
       125          125.000000         3.783694849       295.339243251     -1336.791092371     -1332.903292565        12.091773890
       126          126.000000         3.630633911       283.391952747     -1336.574783832     -1332.838996560        12.131738640
       127          127.000000         3.851506733       300.632352624     -1336.845269309     -1332.887581689        12.075196624
       128          128.000000         3.941716720       307.673763327     -1336.961164792     -1332.912196304        12.102858335
       129          129.000000         3.706163655       289.287485685     -1336.646901971     -1332.832422131        12.080469087
       130          130.000000         3.815275917       297.804328082     -1336.819749730     -1332.895127289        12.081622303
       131          131.000000         3.810794139       297.454499424     -1336.785179263     -1332.864000298        11.420710385
       132          132.000000         3.841597363       299.858869048     -1336.808828820     -1332.855808412        12.081015833
       133          133.000000         3.910453311       305.233473557     -1336.948873667     -1332.925943011        11.438008413
       134          134.000000         3.662344875       285.867176715     -1336.612280593     -1332.836421109        12.107738778
       135          135.000000         3.800881880       296.680790360     -1336.793742903     -1332.878348283        12.094777025
       136          136.000000         3.948987070       308.241256140     -1336.972784788     -1332.908254884        12.092475481
       137          137.000000         3.799350797       296.561280502     -1336.782725282     -1332.866786245        12.120070651
       138          138.000000         3.829796329       298.937730159     -1336.865331037     -1332.917919610        11.480125211
       139          139.000000         3.707557457       289.396279983     -1336.699076558     -1332.872894134        11.443882182
       140          140.000000         3.782077451       295.212996038     -1336.771150660     -1332.869464875        11.461792827
       141          141.000000         3.958013741       308.945839938     -1337.010410740     -1332.931780448        11.519294232
       142          142.000000         3.719067785       290.294727587     -1336.693431143     -1332.852732657        11.494941056
       143          143.000000         3.746991714       292.474351528     -1336.753569326     -1332.883976731        11.430686966
       144          144.000000         3.835237772       299.362466242     -1336.861234897     -1332.902426935        11.442298912
       145          145.000000         3.813198049       297.642138482     -1336.798431579     -1332.860688349        11.446942203
       146          146.000000         3.927495826       306.563740353     -1336.975914959     -1332.922888260        11.498778470
       147          147.000000         3.724633416       290.729157218     -1336.713423768     -1332.862274684        11.493371271
       148          148.000000         3.716882940       290.124187769     -1336.702892434     -1332.858552925        11.447407700
       149          149.000000         3.949968182       308.317837589     -1337.006347453     -1332.927971055        11.447391570
       150          150.000000         3.839271531       299.677324405     -1336.831479043     -1332.862818097        11.460488237
       151          151.000000         3.847626557       300.329482445     -1336.870013324     -1332.892025347        11.442972086
       152          152.000000         3.824723940       298.541800896     -1336.857635078     -1332.901577992        11.479315966
       153          153.000000         3.813145537       297.638039619     -1336.804486873     -1332.859042777        11.443723321
       154          154.000000         4.037126465       315.121045128     -1337.110639236     -1332.940220474        12.095552236
       155          155.000000         3.865813801       301.749101903     -1336.896040404     -1332.895902947        12.072299168
       156          156.000000         3.761684780       293.621230217     -1336.776360951     -1332.879349342        12.106047787
       157          157.000000         3.907311301       304.988221550     -1336.976447961     -1332.932809798        12.091169722
       158          158.000000         3.863391754       301.560047184     -1336.887666881     -1332.886925358        12.145518392
       159          159.000000         3.947581026       308.131506283     -1337.025201164     -1332.939233292        12.111662492
       160          160.000000         3.847993260       300.358105757     -1336.914962212     -1332.927529189        12.066314854
       161          161.000000         3.721635375       290.495142810     -1336.738132875     -1332.876033573        12.079732329
       162          162.000000         3.947731696       308.143266916     -1337.039645043     -1332.950425892        12.123778187
       163          163.000000         3.892665775       303.845053637     -1336.941053259     -1332.905838166        11.449206561
       164          164.000000         3.810963332       297.467705951     -1336.849414127     -1332.894847517        12.080015659
       165          165.000000         3.836856731       299.488835311     -1336.904251789     -1332.922747874        11.431060299
       166          166.000000         3.761724504       293.624330917     -1336.767756654     -1332.860350242        11.478287265
       167          167.000000         3.951835049       308.463557364     -1337.012471134     -1332.913912235        12.118228406
       168          168.000000         3.917385035       305.774534687     -1336.968560998     -1332.903371449        11.455490999
       169          169.000000         3.733572500       291.426904378     -1336.721493233     -1332.839053246        11.448993117
       170          170.000000         3.876493065       302.582680183     -1336.935131076     -1332.908725739        11.476412535
       171          171.000000         3.879669703       302.830635174     -1336.899369606     -1332.868718432        12.078885689
       172          172.000000         3.925507171       306.408514331     -1336.947104047     -1332.869529836        11.450704910
       173          173.000000         3.944764449       307.911656159     -1336.993744649     -1332.895801283        11.455866575
       174          174.000000         3.769479027       294.229616271     -1336.750930769     -1332.827166488        11.431383952
       175          175.000000         3.932202643       306.931134636     -1336.968312218     -1332.880725071        11.420260385
       176          176.000000         3.984008895       310.974911875     -1337.019434139     -1332.878894413        11.421962805
       177          177.000000         3.848205163       300.374646025     -1336.843144196     -1332.837249331        11.454422094
       178          178.000000         3.898742469       304.319374737     -1336.950528547     -1332.892943506        11.487405129
       179          179.000000         3.834615294       299.313878240     -1336.846819976     -1332.852202237        11.416381508
       180          180.000000         3.923505355       306.252261053     -1336.954285060     -1332.869610826        11.442392886
       181          181.000000         3.996653187       311.961871947     -1337.056078824     -1332.897049170        11.454014368
       182          182.000000         3.797446676       296.412652805     -1336.790023470     -1332.828987357        11.424272858
       183          183.000000         3.868622610       301.968345685     -1336.902693524     -1332.869290331        11.472204089
       184          184.000000         3.911260578       305.296485429     -1336.954001591     -1332.876746851        11.437104233
       185          185.000000         3.867148970       301.853319552     -1336.883017195     -1332.848648960        11.424950413
       186          186.000000         3.937611805       307.353350926     -1337.010675305     -1332.904607087        11.429867320
       187          187.000000         3.809654349       297.365532213     -1336.831743343     -1332.852390614        12.120433666
       188          188.000000         3.884163069       303.181368344     -1336.916069194     -1332.860976146        11.421310663
       189          189.000000         4.009506984       312.965185067     -1337.079949723     -1332.898239691        11.461214878
       190          190.000000         3.849098421       300.444369949     -1336.873964581     -1332.851369645        12.094814651
       191          191.000000         3.864047254       301.611212729     -1336.923412782     -1332.884594449        11.453348204
       192          192.000000         3.843349683       299.995647706     -1336.896595084     -1332.877198222        11.449026220
       193          193.000000         3.836594637       299.468377350     -1336.876485655     -1332.862572870        11.424759597
       194          194.000000         3.965919570       309.562935543     -1337.065342473     -1332.920812502        11.431519032
       195          195.000000         3.816835761       297.926082955     -1336.867286570     -1332.870535054        11.437859662
       196          196.000000         3.805709638       297.057624794     -1336.862904251     -1332.876003652        11.448007263
       197          197.000000         3.914288758       305.532852364     -1337.008634990     -1332.911869999        11.452710032
       198          198.000000         3.829536423       298.917442992     -1336.880014644     -1332.866705228        11.461394116
       199          199.000000         3.857595076       301.107582959     -1336.942766681     -1332.900113356        11.492920570
       200          200.000000         3.771788005       294.409845309     -1336.841194130     -1332.883074511        11.464636669
       201          201.000000         3.742143534       292.095923105     -1336.791841047     -1332.862126834        11.480965167
       202          202.000000         3.930323693       306.784471718     -1337.045715171     -1332.926573025        11.436083689
       203          203.000000         3.856616372       301.031189488     -1336.940873558     -1332.894164200        11.485945009
       204          204.000000         3.826732834       298.698606699     -1336.913226551     -1332.895142419        11.431462474
       205          205.000000         3.881458338       302.970248443     -1336.990551210     -1332.916483651        11.489123926
       206          206.000000         3.853977529       300.825212526     -1336.929342709     -1332.881491452        11.442974649
       207          207.000000         3.979063243       310.588875180     -1337.098584147     -1332.924364343        11.465659939
       208          208.000000         3.904747434       304.788096937     -1337.008564060     -1332.907350291        11.505701922
       209          209.000000         3.809703592       297.369375964     -1336.883539731     -1332.876080537        11.457484268
       210          210.000000         3.948897261       308.234246011     -1337.077466007     -1332.929521856        11.417574175
       211          211.000000         3.914199798       305.525908587     -1337.000031906     -1332.885464231        12.080599122
       212          212.000000         3.925766162       306.428730049     -1337.021784421     -1332.894322744        12.080992840
       213          213.000000         3.929040173       306.684285573     -1337.037559046     -1332.905482025        12.113539152
       214          214.000000         3.816662557       297.912563335     -1336.880134337     -1332.859103586        11.426690109
       215          215.000000         3.928004168       306.603419359     -1337.040856863     -1332.907159086        11.475375272
       216          216.000000         3.900963624       304.492748709     -1337.005225527     -1332.897221127        11.442610130
       217          217.000000         3.809987890       297.391567051     -1336.895213587     -1332.876854732        11.476792321
       218          218.000000         3.886925080       303.396959254     -1337.015458504     -1332.918844130        11.426234625
       219          219.000000         3.832489703       299.147963515     -1336.929728061     -1332.886228663        11.436160780
       220          220.000000         3.884188185       303.183328800     -1336.998054625     -1332.901543900        11.444214061
       221          221.000000         3.898878150       304.329965380     -1337.038654088     -1332.926129856        12.056501679
       222          222.000000         3.761610374       293.615422408     -1336.845876172     -1332.869317850        11.428670228
       223          223.000000         3.852960315       300.745813102     -1336.976179549     -1332.906996234        11.435635209
       224          224.000000         3.873801519       302.372589472     -1336.984033252     -1332.892723446        11.452979282
       225          225.000000         3.842046072       299.893893376     -1336.924384368     -1332.863550783        11.450330846
       226          226.000000         3.904938106       304.802979943     -1337.018852965     -1332.893850244        11.436263584
       227          227.000000         3.819301398       298.118540183     -1336.902256787     -1332.861618442        12.074211434