#     Step Nr.          Time[fs]        Kin.[a.u.]          Temp[K]            Pot.[a.u.]        Cons Qty[a.u.]        UsedTime[s]
         0            0.000000         3.844830508       300.000000000     -1262.414095786     -1258.568790255         0.000000000
         1            1.000000         3.425396219       267.272865110     -1261.849291314     -1258.422621315        38.668181535
         2            2.000000         3.371646823       263.078969189     -1261.764210949     -1258.390609975        10.699891743
         3            3.000000         3.622542785       282.655589904     -1261.966137625     -1258.341020402        10.217011327
         4            4.000000         3.684806147       287.513803698     -1261.767549311     -1258.079566803        10.197000297
         5            5.000000         4.221926227       329.423589788     -1262.252403137     -1258.026669380        10.193764568
         6            6.000000         4.228874438       329.965736795     -1261.951817455     -1257.718392806        10.195400027
         7            7.000000         4.414475902       344.447633673     -1261.829903508     -1257.410025674        10.200938401
         8            8.000000         5.167640377       403.214682623     -1262.495535786     -1257.321385310        10.226443873
         9            9.000000         5.191401823       405.068713352     -1262.118332420     -1256.918895095        10.174965954
        10           10.000000         5.356397086       417.942773388     -1262.045659112     -1256.679297422        10.191363772
        11           11.000000         5.519305627       430.654013134     -1261.973196958     -1256.441510034        10.197252463
        12           12.000000         5.593665110       436.456049094     -1261.714874096     -1256.105879200        10.170537818
        13           13.000000         6.313780159       492.644355512     -1262.402745467     -1256.069903328        10.204638753
        14           14.000000         6.340393814       494.720935082     -1262.248043647     -1255.883854066        10.246277316
        15           15.000000         6.216726602       485.071572497     -1262.018789899     -1255.772776471        10.253132909
        16           16.000000         6.535725182       509.962025762     -1262.396020004     -1255.824643335        10.190429597
        17           17.000000         6.343229236       494.942174061     -1262.119600796     -1255.733461288        10.781139886
        18           18.000000         6.378566482       497.699427947     -1262.274193761     -1255.844770991        10.179774649
        19           19.000000         6.117091461       477.297356597     -1262.124734005     -1255.948268320        10.197508670
        20           20.000000         5.637542129       439.879634474     -1261.652934448     -1255.947446905        10.172368224
        21           21.000000         5.982507637       466.796205264     -1262.331540766     -1256.272202353        10.244430381
        22           22.000000         5.806788400       453.085387331     -1262.318147894     -1256.425105030        10.198632576
        23           23.000000         5.421339628       423.010035168     -1262.144139582     -1256.627272117        10.214513493
        24           24.000000         5.255335628       410.057266532     -1262.293611322     -1256.933790417        10.227121311
        25           25.000000         4.730919961       369.138765726     -1261.864273883     -1257.020471356        10.186191440
        26           26.000000         4.806207941       375.013249363     -1262.247741846     -1257.320756924        10.207758185
        27           27.000000         4.621399297       360.593213730     -1262.281389017     -1257.531572159        10.241646481
        28           28.000000         4.021406689       313.777682528     -1261.677574074     -1257.520962021        10.199074606
        29           29.000000         4.185302804       326.565979563     -1262.115372346     -1257.788743073        10.244158183
        30           30.000000         4.113666624       320.976434312     -1262.101241334     -1257.840371501        10.244176546
        31           31.000000         4.054330461       316.346620646     -1262.119209770     -1257.912207415        10.214792070
        32           32.000000         4.041790929       315.368200514     -1262.223916727     -1258.024347860        10.260843931
        33           33.000000         3.554249140       277.326852136     -1261.566587511     -1257.850060932        10.195468442
        34           34.000000         3.870884847       302.032937899     -1261.924553400     -1257.887334336        10.211486283
        35           35.000000         4.188221423       326.793710195     -1262.172853452     -1257.814185668        10.195104671
        36           36.000000         4.067835423       317.400370284     -1261.816936904     -1257.574660924        10.221251685
        37           37.000000         4.383156694       342.003894667     -1262.093149095     -1257.531674791        10.172176603
        38           38.000000         4.399605096       343.287311595     -1261.848453460     -1257.266646817        10.214838121
        39           39.000000         4.718576101       368.175613249     -1262.013966079     -1257.109270656        10.742646790
        40           40.000000         5.118112159       399.350151945     -1262.318825777     -1257.010400451        10.765144583
        41           41.000000         4.795196579       374.154067510     -1261.638564125     -1256.648776080        10.747496039
        42           42.000000         5.099034493       397.861581840     -1261.829271213     -1256.531353876        10.201859935
        43           43.000000         5.506155086       429.627917842     -1262.047465388     -1256.337730523        10.783801034
        44           44.000000         5.660493120       441.670427945     -1261.974693147     -1256.105465737        10.711823069
        45           45.000000         6.032473874       470.694913143     -1262.364797832     -1256.117907303        10.206848356
        46           46.000000         5.770419382       450.247627504     -1261.912077054     -1255.921147624        10.198349473
        47           47.000000         5.846340538       456.171515893     -1261.916492349     -1255.843333945        10.199125270
        48           48.000000         6.204583783       484.124106642     -1262.373455748     -1255.935172375        10.188274915
        49           49.000000         5.851254217       456.554914831     -1261.901525669     -1255.809292476        10.169724972
        50           50.000000         5.844423851       456.021962904     -1262.016651087     -1255.923872064        10.218881441
        51           51.000000         5.780362057       451.023423131     -1262.019743450     -1255.983410987        10.199402632
        52           52.000000         5.688925533       443.888919504     -1261.978219820     -1256.025557020        10.778360315
        53           53.000000         5.942848514       463.701728956     -1262.512963730     -1256.298264344        10.784847725
        54           54.000000         5.407870152       421.959054425     -1262.041044961     -1256.353158444        10.732474128
        55           55.000000         5.073514348       395.870325374     -1261.869022980     -1256.507838776        10.770919528
        56           56.000000         5.136670327       400.798187277     -1262.218827694     -1256.787008906        10.217814790
        57           57.000000         4.792532295       373.946181882     -1261.943745450     -1256.848781317        10.745116912
        58           58.000000         4.775191055       372.593099559     -1262.185794076     -1257.101205277        10.194057018
        59           59.000000         4.461696508       348.132108675     -1261.988197340     -1257.210447625        10.220678851
        60           60.000000         4.199292805       327.657575250     -1261.787863475     -1257.266398094        10.180842716
        61           61.000000         4.544653249       354.604961581     -1262.397964427     -1257.525120652        10.191145425
        62           62.000000         4.231680509       330.184685608     -1262.072043323     -1257.506236218        10.772633826
        63           63.000000         3.991934421       311.478054410     -1261.863212692     -1257.531727439        10.203329646
        64           64.000000         4.040725511       315.285069302     -1261.994262962     -1257.608858046        10.217702798
        65           65.000000         3.922302241       306.044874995     -1261.739542990     -1257.467633173        10.240009223
        66           66.000000         4.333830748       338.155146647     -1262.220427265     -1257.532038262        10.210147198
        67           67.000000         4.289955593       334.731706634     -1262.074595401     -1257.424996640        10.223910074
        68           68.000000         4.091011076       319.208693353     -1261.675526464     -1257.220007688        10.747538833
        69           69.000000         4.546852124       354.776532831     -1262.137907314     -1257.221627446        10.771311851
        70           70.000000         4.591087083       358.228047216     -1261.964667626     -1256.998959861        10.202373246
        71           71.000000         4.721520272       368.405337684     -1261.968236234     -1256.866784089        10.227533332
        72           72.000000         4.837857006       377.482726114     -1261.979849575     -1256.756555389        10.234892300
        73           73.000000         4.710929355       367.578961778     -1261.581726568     -1256.479783365        10.277408333
        74           74.000000         5.294056013       413.078496040     -1262.132993861     -1256.441996692        10.194267011
        75           75.000000         5.495422105       428.790457227     -1262.207224636     -1256.308256962        10.219533070
        76           76.000000         5.338260558       416.527637292     -1261.850725822     -1256.102023038        10.235352546
        77           77.000000         5.559648728       433.801858018     -1262.099654778     -1256.122379614        10.212961231
        78           78.000000         5.475083176       427.203474738     -1261.855413233     -1255.955152677        10.231761427
        79           79.000000         5.704469208       445.101743408     -1262.095313418     -1255.957744777        10.185484618
        80           80.000000         5.792368820       451.960272958     -1262.246636722     -1256.012705970        10.226290070
        81           81.000000         5.390275567       420.586204437     -1261.714427650     -1255.874056455        10.209016348
        82           82.000000         5.636978082       439.835623701     -1262.109519337     -1256.013815486        10.234042660
        83           83.000000         5.679427641       443.147828902     -1262.219060081     -1256.071809332        10.189092523
        84           84.000000         5.483599566       427.867981736     -1262.056467374     -1256.095840084        10.252947795
        85           85.000000         5.446259725       424.954471693     -1262.215507678     -1256.283039377        10.207246927
        86           86.000000         4.987194950       389.135094953     -1261.732980349     -1256.250699145        10.224167484
        87           87.000000         5.050828916       394.100252690     -1261.980469835     -1256.426003790        10.198858221
        88           88.000000         5.143186922       401.306656648     -1262.282790924     -1256.627282526        10.197534581
        89           89.000000         4.674005236       364.697889193     -1261.822597011     -1256.627908819        10.241222342
        90           90.000000         4.662095836       363.768636300     -1262.050478028     -1256.859836771        10.207325067
        91           91.000000         4.527002345       353.227717192     -1262.010887495     -1256.947707974        10.189215438
        92           92.000000         4.443833570       346.738319944     -1262.012671642     -1257.025338554        10.244301185
        93           93.000000         4.543208740       354.492251085     -1262.332214026     -1257.238308967        10.214383954
        94           94.000000         4.063735650       317.080477925     -1261.803581684     -1257.182379480        10.760149439
        95           95.000000         4.085427529       318.773026813     -1261.933524076     -1257.284403982        10.760446362
        96           96.000000         4.324621769       337.436599069     -1262.270292390     -1257.375732670        10.797682593
        97           97.000000         4.172788782       325.589549923     -1261.957629328     -1257.208724089        10.203227139
        98           98.000000         4.311142937       336.384888335     -1262.155936032     -1257.262645730        10.761381404
        99           99.000000         4.159336239       324.539890391     -1261.922536444     -1257.175141727        10.754094241
       100          100.000000         4.232046888       330.213273063     -1261.922909978     -1257.097068221        10.763465741
       101          101.000000         4.643743593       362.336668665     -1262.371587123     -1257.128076265        10.233067761
       102          102.000000         4.407856894       343.931173415     -1261.912249027     -1256.898553834        10.282319138
       103          103.000000         4.468790361       348.685619690     -1261.891279583     -1256.810737637        10.192188004
       104          104.000000         4.712910237       367.733523735     -1262.060511187     -1256.729756313        10.198345913
       105          105.000000         4.795568510       374.183088141     -1261.934431481     -1256.514677775        10.210310195
       106          106.000000         5.164568661       402.975006317     -1262.309699251     -1256.514231303        10.200857768
       107          107.000000         4.988828114       389.262525639     -1261.946641014     -1256.319927466        10.787809221
       108          108.000000         4.935375983       385.091824357     -1261.773836090     -1256.193630392        10.784513014
       109          109.000000         5.353110219       417.686309478     -1262.228748540     -1256.223492095        10.195589395
       110          110.000000         5.286030867       412.452319211     -1262.005002043     -1256.059062954        10.196002692
       111          111.000000         5.348800988       417.350073832     -1262.054001454     -1256.037338246        10.793197633
       112          112.000000         5.305719151       413.988533899     -1262.007026042     -1256.025279969        10.212993768
       113          113.000000         5.184582215       404.536600786     -1261.800495741     -1255.931674007        10.221049842
       114          114.000000         5.557113757       433.604062256     -1262.309126007     -1256.059205898        10.189689686
       115          115.000000         5.352982068       417.676310289     -1262.099321388     -1256.044620087        10.217714000
       116          116.000000         5.049767678       394.017447625     -1261.838692354     -1256.078553348        10.248793233
       117          117.000000         5.123338823       399.757972081     -1262.116355904     -1256.274107856        10.213279477
       118          118.000000         4.957582229       386.824507762     -1261.948109708     -1256.263092499        10.733445880
       119          119.000000         5.072473063       395.789077246     -1262.219598284     -1256.411175535        10.786478468
       120          120.000000         4.895517728       381.981810411     -1262.139215304     -1256.499249869        10.179779801
       121          121.000000         4.494823724       350.716920924     -1261.726928871     -1256.479663085        10.194073621
       122          122.000000         4.699672392       366.700616484     -1262.162745994     -1256.702888735        10.202355246
       123          123.000000         4.589439012       358.099453418     -1262.155262305     -1256.797877752        10.200593845
       124          124.000000         4.405842462       343.773993649     -1262.026637536     -1256.845411433        10.226256356
       125          125.000000         4.354957263       339.803581965     -1262.111896717     -1256.974419462        10.209129665
       126          126.000000         4.074846889       317.947452804     -1261.805947419     -1256.941832076        10.230836633
       127          127.000000         4.318348046       336.947080229     -1262.174061361     -1257.059879623        10.185716714
       128          128.000000         4.356822037       339.949084457     -1262.254584023     -1257.095255839        10.226989386
       129          129.000000         4.050546614       316.051378984     -1261.856928986     -1256.997507211        10.204835576
       130          130.000000         4.210947722       328.566971631     -1262.101128305     -1257.075181104        10.219420978
       131          131.000000         4.198849849       327.623012728     -1262.035715814     -1257.015740212        10.218431210
       132          132.000000         4.321429044       337.187480796     -1262.114050769     -1256.965385396        10.187244764
       133          133.000000         4.477433652       349.360028378     -1262.255361561     -1256.944447160        10.174603155
       134          134.000000         4.239821976       330.819938605     -1261.851648388     -1256.772194560        10.203925217
       135          135.000000         4.524509842       353.033235055     -1262.129683331     -1256.759415972        10.192172254
       136          136.000000         4.749533980       370.591158933     -1262.297552235     -1256.695783181        10.192016205
       137          137.000000         4.669183922       364.321697267     -1262.052347174     -1256.524303812        10.197875235
       138          138.000000         4.829821891       376.855771444     -1262.181725504     -1256.486317383        10.215197287
       139          139.000000         4.732037691       369.225978670     -1261.932294357     -1256.327828361        10.727002470
       140          140.000000         4.927437265       384.472391242     -1262.069600824     -1256.262757930        10.188439736
       141          141.000000         5.210713660       406.575555045     -1262.372475902     -1256.274921283        10.190147407
       142          142.000000         4.967992792       387.636811166     -1261.997517794     -1256.135057689        10.175112715
       143          143.000000         5.078811950       396.283680541     -1262.145377281     -1256.164447314        10.196970455
       144          144.000000         5.171685361       403.530299944     -1262.250420723     -1256.168675137        10.174220248
       145          145.000000         5.137723071       400.880329570     -1262.168336823     -1256.112414199        10.203699510
       146          146.000000         5.282779387       412.198616489     -1262.410503075     -1256.201149107        10.735437340
       147          147.000000         4.992323626       389.535269416     -1262.064753785     -1256.137443911        10.779231772
       148          148.000000         4.987915915       389.191349625     -1262.112379935     -1256.181216045        10.737766787
       149          149.000000         5.188987569       404.880336689     -1262.445775427     -1256.305033622        10.744005176
       150          150.000000         4.950172107       386.246319303     -1262.178819698     -1256.268314819        10.818714843
       151          151.000000         4.928668801       384.568484107     -1262.291278645     -1256.393863498        10.748611982
       152          152.000000         4.778214449       372.829005509     -1262.206311773     -1256.451052250        10.164919544
       153          153.000000         4.654164655       363.149791275     -1262.108301293     -1256.469032994        10.198618994
       154          154.000000         4.827633946       376.685052992     -1262.457078625     -1256.636270538        10.233438079
       155          155.000000         4.518493558       352.563803361     -1262.154477987     -1256.634867865        10.187970926
       156          156.000000         4.379272078       341.700790346     -1262.104646678     -1256.716761548        10.227297855
       157          157.000000         4.474285969       349.114424633     -1262.337325435     -1256.847060240        10.745695513
       158          158.000000         4.328101611       337.708120151     -1262.210536063     -1256.859211521        10.776511974
       159          159.000000         4.406631550       343.835563687     -1262.405504802     -1256.968558207        10.771929695
       160          160.000000         4.224887317       329.654634318     -1262.197392476     -1256.935266393        10.786085067
       161          161.000000         4.089107526       319.060165392     -1262.032123584     -1256.899215779        10.754758513
       162          162.000000         4.371278727       341.077094367     -1262.434791740     -1257.013158991        10.770715179
       163          163.000000         4.265371564       332.813492375     -1262.260366279     -1256.938026437        10.745724408
       164          164.000000         4.238551424       330.720801496     -1262.211555032     -1256.909603026        10.760769062
       165          165.000000         4.324367196       337.416735549     -1262.292578166     -1256.898413098        10.783659480
       166          166.000000         4.296436198       335.237367832     -1262.155722159     -1256.783108460        10.184823366
       167          167.000000         4.606712747       359.447268537     -1262.486205550     -1256.796777761        10.748371442
       168          168.000000         4.564774645       356.174970657     -1262.331161992     -1256.676932148        10.754840399
       169          169.000000         4.418981974       344.799228297     -1262.057962440     -1256.542917277        10.740527003
       170          170.000000         4.673640856       364.669457812     -1262.299352181     -1256.522970785        10.781216652
       171          171.000000         4.706887644       367.263599818     -1262.209185198     -1256.392634175        10.170414353
       172          172.000000         4.843913627       377.955305158     -1262.300207588     -1256.339527959        10.217497475
       173          173.000000         4.874558822       380.346453128     -1262.297430207     -1256.298795875        10.221232658
       174          174.000000         4.699789223       366.709732442     -1261.993306730     -1256.162157237        10.178908796
       175          175.000000         4.980609500       388.621253055     -1262.336670907     -1256.217274757        10.199415630
       176          176.000000         5.025424311       392.118011473     -1262.324130682     -1256.152134296        10.178442642
       177          177.000000         4.888047230       381.398911051     -1262.131872634     -1256.089422716        10.802814107
       178          178.000000         4.933414805       384.938799829     -1262.245981011     -1256.150316458        10.192313528
       179          179.000000         4.791902189       373.897016721     -1262.078406011     -1256.116401318        10.784920222
       180          180.000000         4.937606701       385.265880245     -1262.298810000     -1256.183186400        10.184872088
       181          181.000000         4.963616806       387.295366747     -1262.396482081     -1256.246715947        10.202954197
       182          182.000000         4.644929948       362.429236218     -1262.018036016     -1256.178994392        10.207004862
       183          183.000000         4.699464414       366.684388570     -1262.177732239     -1256.276402901        10.212230440
       184          184.000000         4.663368871       363.867967173     -1262.105961007     -1256.232952727        10.198784140
       185          185.000000         4.598421098       358.800297285     -1262.116510198     -1256.300762012        10.759813552
       186          186.000000         4.617874683       360.318199171     -1262.266237426     -1256.423401964        10.221156615
       187          187.000000         4.330662696       337.907953536     -1261.952831009     -1256.389818376        10.186700812
       188          188.000000         4.381578593       341.880760435     -1262.124370780     -1256.503316931        10.207668578
       189          189.000000         4.472123878       348.945723522     -1262.303196102     -1256.584419976        10.208243766
       190          190.000000         4.254128799       331.936254924     -1262.044871515     -1256.537066290        10.195683945
       191          191.000000         4.252417378       331.802718144     -1262.121654189     -1256.608792692        10.200222322
       192          192.000000         4.131594051       322.375254956     -1262.018773858     -1256.620148838        10.203068162
       193          193.000000         4.145893843       323.491022598     -1262.043844248     -1256.624513692        10.214773724
       194          194.000000         4.311147221       336.385222574     -1262.274942453     -1256.683904390        10.189664479
       195          195.000000         4.109481050       320.649847184     -1261.995734624     -1256.599998655        10.216902443
       196          196.000000         4.159413371       324.545908786     -1262.055881429     -1256.604047972        10.193443866
       197          197.000000         4.291042239       334.816494194     -1262.170857333     -1256.581168618        10.251677441
       198          198.000000         4.269696622       333.150963017     -1262.053992026     -1256.479388631        10.267276252
       199          199.000000         4.418642757       344.772760272     -1262.221612959     -1256.491749751        10.217089782
       200          200.000000         4.315557623       336.729352335     -1262.025256608     -1256.392146180        10.236367131
       201          201.000000         4.351573380       339.539548305     -1262.010493828     -1256.335107921        10.256068719
       202          202.000000         4.608215022       359.564486308     -1262.270327378     -1256.331839804        10.216920933
       203          203.000000         4.531158202       353.551985654     -1262.025564525     -1256.157509743        10.219501610
       204          204.000000         4.594324497       358.480652468     -1262.043288297     -1256.105421877        10.189567315
       205          205.000000         4.638510545       361.928350419     -1262.059760255     -1256.070942083        10.210252904
       206          206.000000         4.606417193       359.424207404     -1261.956819414     -1255.993269473        10.205468961
       207          207.000000         4.813997577       375.621050107     -1262.213971407     -1256.035833436        10.199485837
       208          208.000000         4.709483502       367.466146407     -1262.095262511     -1256.014469427        10.238680166
       209          209.000000         4.645080383       362.440974183     -1262.021273294     -1255.997774348        10.196364949
       210          210.000000         4.793842980       374.048450468     -1262.251692765     -1256.072203262        10.220141330
       211          211.000000         4.700016688       366.727480761     -1262.121833643     -1256.028826317        10.213411791
       212          212.000000         4.736069373       369.540558119     -1262.207045531     -1256.070626502        10.190022938
       213          213.000000         4.669604308       364.354498672     -1262.177764788     -1256.100418014        10.232936123
       214          214.000000         4.529070012       353.389050757     -1262.033361225     -1256.089280325        10.208659347
       215          215.000000         4.672444530       364.576112222     -1262.294632433     -1256.199893055        10.243170227
       216          216.000000         4.545581217       354.677367986     -1262.206829843     -1256.231628243        10.242619723
       217          217.000000         4.411104728       344.184591666     -1262.125063774     -1256.277216546        10.259603701
       218          218.000000         4.419864822       344.868114133     -1262.237881408     -1256.374275267        10.207214199
       219          219.000000         4.272249916       333.350188523     -1262.116060651     -1256.393210003        10.247091665
       220          220.000000         4.337577842       338.447520581     -1262.273368181     -1256.478446502        10.232318558
       221          221.000000         4.265340941       332.811102988     -1262.240569002     -1256.511191238        10.343431985
       222          222.000000         4.080988756       318.426683389     -1262.040052831     -1256.488590332        10.227180570
       223          223.000000         4.198358063       327.584640278     -1262.225282102     -1256.550147704        10.257491338
       224          224.000000         4.153240755       324.064278977     -1262.143289428     -1256.506981046        10.226666862
       225          225.000000         4.136544246       322.761503018     -1262.134569069     -1256.508779895        10.261217150
       226          226.000000         4.165367229       325.010469550     -1262.194770760     -1256.534039412        10.221123519
       227          227.000000         4.039424972       315.183592343     -1262.009703490     -1256.468928453        10.265462642