#     Step Nr.          Time[fs]        Kin.[a.u.]          Temp[K]            Pot.[a.u.]        Cons Qty[a.u.]        UsedTime[s]
         0            0.000000         3.850530776       300.000000000     -1297.548081247     -1293.697075449         0.000000000
         1            1.000000         3.978813088       309.994646406     -1297.742204898     -1293.762043866        45.861993883
         2            2.000000         3.932345047       306.374259201     -1297.687719016     -1293.753122142        11.922678601
         3            3.000000         3.940687050       307.024195804     -1297.694331324     -1293.750474702        12.004962787
         4            4.000000         4.001597067       311.769776658     -1297.779703541     -1293.773991045        11.568342913
         5            5.000000         3.921527691       305.531464539     -1297.648890585     -1293.722276505        11.383281749
         6            6.000000         4.011377257       312.531764355     -1297.762473014     -1293.745018071        11.659617297
         7            7.000000         4.003561299       311.922812645     -1297.740848444     -1293.730177063        11.374066312
         8            8.000000         3.935056132       306.585483488     -1297.623200918     -1293.679982251        11.497057352
         9            9.000000         4.031301739       314.084107390     -1297.745435544     -1293.704893354        11.688278869
        10           10.000000         3.973796948       309.603832211     -1297.647037611     -1293.662883763        12.136600025
        11           11.000000         3.989899768       310.858424491     -1297.647458025     -1293.646063439        11.569093011
        12           12.000000         4.044321207       315.098471565     -1297.697344001     -1293.640350164        11.542486537
        13           13.000000         3.968126023       309.162002910     -1297.537088905     -1293.555079248        11.664465614
        14           14.000000         4.078073734       317.728176015     -1297.669923453     -1293.576720866        11.951531939
        15           15.000000         4.104803566       319.810732995     -1297.618185915     -1293.496941733        12.606182154
        16           16.000000         4.078119910       317.731773678     -1297.538710619     -1293.442786631        11.917470474
        17           17.000000         4.187979048       326.291045985     -1297.644529459     -1293.437317310        11.962776668
        18           18.000000         4.132053511       321.933812584     -1297.537328755     -1293.384536997        11.286193103
        19           19.000000         4.168122654       324.744007805     -1297.549051334     -1293.358627170        11.367728733
        20           20.000000         4.240648655       330.394605423     -1297.601076225     -1293.336473936        11.331654631
        21           21.000000         4.176427559       325.391053994     -1297.460009963     -1293.257896278        11.331362154
        22           22.000000         4.310291193       335.820548671     -1297.624599741     -1293.286800900        11.380071316
        23           23.000000         4.364879934       340.073630465     -1297.645349306     -1293.251002390        11.302374877
        24           24.000000         4.370443704       340.507111190     -1297.606106456     -1293.204112409        11.317037463
        25           25.000000         4.503071130       350.840291313     -1297.747890408     -1293.211034516        11.338283092
        26           26.000000         4.456893222       347.242508769     -1297.589179899     -1293.096106985        11.308228597
        27           27.000000         4.513124091       351.623530904     -1297.609918745     -1293.058081582        11.350020640
        28           28.000000         4.593567091       357.890952538     -1297.676641841     -1293.041643141        11.326397780
        29           29.000000         4.509684299       351.355532102     -1297.526779456     -1292.972789327        11.332215413
        30           30.000000         4.607316340       358.962174939     -1297.628893419     -1292.974246765        11.355923850
        31           31.000000         4.626721569       360.474062263     -1297.607323265     -1292.930049130        11.353013914
        32           32.000000         4.614513770       359.522936322     -1297.517719793     -1292.849267411        11.342987649
        33           33.000000         4.729685845       368.496146637     -1297.663800367     -1292.876591182        11.313122697
        34           34.000000         4.657269889       362.854122682     -1297.556699398     -1292.838131836        11.303983230
        35           35.000000         4.702414727       366.371417378     -1297.606045978     -1292.838410792        11.373467967
        36           36.000000         4.792949717       373.425119476     -1297.672463806     -1292.810150873        11.359190803
        37           37.000000         4.719345425       367.690510705     -1297.558409764     -1292.765380930        11.326854657
        38           38.000000         4.787671880       373.013916157     -1297.657989397     -1292.792163013        11.355375711
        39           39.000000         4.750442078       370.113292538     -1297.605247957     -1292.772013841        11.438771751
        40           40.000000         4.714023991       367.275910700     -1297.545232153     -1292.743680298        11.367656525
        41           41.000000         4.826121837       376.009603686     -1297.682457055     -1292.763914329        11.328978397
        42           42.000000         4.748177928       369.936889532     -1297.581877637     -1292.736245133        11.319453120
        43           43.000000         4.774057564       371.953206568     -1297.617661708     -1292.741043591        11.393084817
        44           44.000000         4.848566763       377.758317858     -1297.692695031     -1292.736316725        11.341296401
        45           45.000000         4.803993581       374.285561697     -1297.585294145     -1292.668132051        11.366267912
        46           46.000000         4.907079496       382.317123169     -1297.737058426     -1292.711348330        11.381828938
        47           47.000000         4.859543603       378.613538206     -1297.675195865     -1292.691454919        11.330231976
        48           48.000000         4.787335661       372.987720919     -1297.585898585     -1292.668817905        11.329883084
        49           49.000000         4.880184539       380.221701059     -1297.729265787     -1292.713754275        11.332172289
        50           50.000000         4.803059604       374.212794272     -1297.615740762     -1292.671742413        11.673413455
        51           51.000000         4.819623767       375.503330417     -1297.668813952     -1292.702678450        11.381086558
        52           52.000000         4.854306221       378.205486735     -1297.713571721     -1292.707165103        11.327431340
        53           53.000000         4.771239372       371.733637502     -1297.599926088     -1292.671046000        11.334246654
        54           54.000000         4.859753431       378.629886143     -1297.767930475     -1292.745034462        11.348170802
        55           55.000000         4.793733891       373.486215574     -1297.726604645     -1292.764250637        11.458711609
        56           56.000000         4.685592193       365.060751265     -1297.608046151     -1292.748510558        11.377422761
        57           57.000000         4.731923813       368.670509773     -1297.694318544     -1292.783242018        11.360556718
        58           58.000000         4.639116787       361.439790308     -1297.595738749     -1292.772362885        11.396027233
        59           59.000000         4.654656110       362.650479730     -1297.676687890     -1292.832799883        11.359683286
        60           60.000000         4.649297495       362.232982860     -1297.700831180     -1292.857412392        11.362202484
        61           61.000000         4.511227124       351.475735672     -1297.542397060     -1292.832322707        11.430137962
        62           62.000000         4.574676533       356.419163980     -1297.674303843     -1292.896197929        11.393125836
        63           63.000000         4.530116785       352.947454408     -1297.644281890     -1292.906235894        11.385049786
        64           64.000000         4.446139665       346.404684775     -1297.571956403     -1292.913542835        11.408914823
        65           65.000000         4.478219276       348.904050081     -1297.645106128     -1292.950391172        11.380567651
        66           66.000000         4.373658917       340.757612765     -1297.541516159     -1292.947261160        12.004589412
        67           67.000000         4.408867958       343.500796186     -1297.639333681     -1293.005894810        11.345162816
        68           68.000000         4.421248057       344.465346308     -1297.723519280     -1293.073784119        11.407808930
        69           69.000000         4.269329258       332.629149539     -1297.551512186     -1293.049911973        11.429421067
        70           70.000000         4.295660989       334.680689944     -1297.656248573     -1293.124672240        11.434130710
        71           71.000000         4.237721209       330.166524226     -1297.625357251     -1293.148165230        11.439673480
        72           72.000000         4.186926155       326.209013629     -1297.600373397     -1293.170541693        11.378399387
        73           73.000000         4.241874130       330.490083841     -1297.726131400     -1293.237989964        11.395369142
        74           74.000000         4.129890614       321.765298402     -1297.631463231     -1293.252026621        12.018842112
        75           75.000000         4.170204353       324.906195734     -1297.722430864     -1293.299497436        12.044540104
        76           76.000000         4.214167218       328.331401269     -1297.819750006     -1293.349693356        12.048335329
        77           77.000000         4.082880713       318.102694229     -1297.693910304     -1293.352055111        11.394635554
        78           78.000000         4.086098661       318.353408846     -1297.741034149     -1293.392978525        11.412001189
        79           79.000000         3.996298569       311.356963654     -1297.638135518     -1293.376981716        11.406289302
        80           80.000000         3.951579301       307.872825689     -1297.609850922     -1293.390626881        11.393833380
        81           81.000000         4.032041838       314.141769476     -1297.754556895     -1293.452130090        11.376514107
        82           82.000000         3.916218995       305.117856922     -1297.628336566     -1293.439051510        11.392423496
        83           83.000000         3.929621346       306.162052040     -1297.690833741     -1293.485556722        11.422073741
        84           84.000000         3.966807310       309.059260172     -1297.757153683     -1293.512136333        11.401412591
        85           85.000000         3.878047037       302.143828685     -1297.662915550     -1293.504163836        11.356898319
        86           86.000000         3.920775398       305.472852404     -1297.791089641     -1293.587179903        11.365485210
        87           87.000000         3.825896401       298.080702931     -1297.695466667     -1293.584066260        11.373129979
        88           88.000000         3.776339659       294.219670892     -1297.639694626     -1293.575579142        11.381877065
        89           89.000000         3.872049614       301.676561467     -1297.812620704     -1293.650567467        11.359706927
        90           90.000000         3.772902492       293.951876605     -1297.653338823     -1293.588249227        12.030347109
        91           91.000000         3.766988165       293.491083510     -1297.704868266     -1293.643591984        12.050243184
        92           92.000000         3.763752321       293.238974605     -1297.716599512     -1293.656513272        11.954858452
        93           93.000000         3.676713849       286.457690835     -1297.588092441     -1293.613075245        11.374169365
        94           94.000000         3.757027668       292.715047864     -1297.686589684     -1293.629351390        11.366668541
        95           95.000000         3.694106911       287.812807620     -1297.611403083     -1293.615223265        11.349655334
        96           96.000000         3.666708268       285.678142696     -1297.537320243     -1293.566754068        11.381166082
        97           97.000000         3.794233733       295.613822148     -1297.729645639     -1293.629800602        12.005726539
        98           98.000000         3.742858918       291.611141626     -1297.641347453     -1293.591143180        11.978201445
        99           99.000000         3.759465917       292.905015099     -1297.674610518     -1293.606112942        11.368347812
       100          100.000000         3.733255191       290.862902446     -1297.672653780     -1293.628720248        11.435342815
       101          101.000000         3.645238321       284.005390441     -1297.547022114     -1293.589524764        11.367179267
       102          102.000000         3.777750297       294.329575585     -1297.713620770     -1293.622071529        11.396081023
       103          103.000000         3.770779343       293.786459282     -1297.670793971     -1293.584681897        11.381295510
       104          104.000000         3.759234857       292.887012884     -1297.642520274     -1293.566451920        11.351470988
       105          105.000000         3.877281462       302.084181689     -1297.774031358     -1293.578422101        11.345070321
       106          106.000000         3.858349811       300.609191475     -1297.721295838     -1293.543114538        11.355578072
       107          107.000000         3.952272215       307.926811561     -1297.789524576     -1293.515909548        11.362704940
       108          108.000000         3.966732903       309.053463064     -1297.799478804     -1293.509862834        11.963975571
       109          109.000000         3.864207922       301.065604771     -1297.632979042     -1293.444354601        11.350171916
       110          110.000000         3.993559709       311.143575361     -1297.775629123     -1293.456115298        11.343664490
       111          111.000000         4.028152398       313.838738054     -1297.745037011     -1293.389343108        11.371701382
       112          112.000000         4.049854358       315.529566703     -1297.723350569     -1293.344328637        11.353016611
       113          113.000000         4.139832410       322.539877010     -1297.789399920     -1293.318716359        11.356762521
       114          114.000000         4.082487412       318.072051559     -1297.667216861     -1293.252139562        11.336234774
       115          115.000000         4.190019972       326.450057098     -1297.788059860     -1293.263655325        11.435757138
       116          116.000000         4.250251059       331.142741571     -1297.809497839     -1293.222967462        11.355690036
       117          117.000000         4.167720154       324.712648420     -1297.678258635     -1293.172295748        11.375053383
       118          118.000000         4.257136784       331.679217640     -1297.772990853     -1293.175581591        11.358046923
       119          119.000000         4.261603277       332.027208097     -1297.760182232     -1293.156176811        11.407099769
       120          120.000000         4.303044370       335.255938998     -1297.776550068     -1293.128880439        11.358344443
       121          121.000000         4.388584967       341.920521289     -1297.838511460     -1293.102952888        11.342485990
       122          122.000000         4.278986877       333.381587557     -1297.656043876     -1293.027638407        11.997019991
       123          123.000000         4.337922138       337.973312563     -1297.683939528     -1292.994079694        11.338035099
       124          124.000000         4.409122451       343.520624093     -1297.745019835     -1292.981305156        11.386447329
       125          125.000000         4.375637287       340.911750248     -1297.652710501     -1292.919705788        11.360933706
       126          126.000000         4.479087865       348.971723059     -1297.731753535     -1292.892392141        11.363107674
       127          127.000000         4.457619045       347.299058608     -1297.673793823     -1292.852844436        11.394429944
       128          128.000000         4.500292587       350.623811311     -1297.673178757     -1292.806368325        11.400381252
       129          129.000000         4.618662119       359.846139764     -1297.828240192     -1292.839681334        11.968768675
       130          130.000000         4.516346467       351.874590566     -1297.676753614     -1292.786975667        11.350592088
       131          131.000000         4.543512226       353.991111113     -1297.698309702     -1292.777726879        11.374958213
       132          132.000000         4.579904612       356.826490607     -1297.710048543     -1292.749274985        11.346790470
       133          133.000000         4.554879974       354.876787559     -1297.650298727     -1292.710610059        11.345003810
       134          134.000000         4.670078989       363.852096807     -1297.794868258     -1292.735866946        11.387303315
       135          135.000000         4.621622256       360.076768015     -1297.670205774     -1292.655368752        11.351922903
       136          136.000000         4.628446073       360.608420665     -1297.699724328     -1292.673650890        12.033497814
       137          137.000000         4.742762431       369.514960937     -1297.850161543     -1292.705161889        12.003046602
       138          138.000000         4.665942920       363.529850173     -1297.735270911     -1292.662310627        11.344394173
       139          139.000000         4.677026071       364.393353291     -1297.719035537     -1292.630109893        11.375526253
       140          140.000000         4.655086995       362.684050552     -1297.664630239     -1292.592639781        11.414884564
       141          141.000000         4.605275081       358.803137739     -1297.595227971     -1292.567969479        11.351275232
       142          142.000000         4.726976315       368.285043531     -1297.775462507     -1292.621280340        11.420839120
       143          143.000000         4.660150341       363.078542566     -1297.692130359     -1292.599407054        11.405778430
       144          144.000000         4.610264973       359.191906864     -1297.644071345     -1292.595837230        11.362452116
       145          145.000000         4.674649502       364.208191621     -1297.730055794     -1292.611952838        11.408102822
       146          146.000000         4.619452214       359.907697119     -1297.680444927     -1292.611969172        11.406944133
       147          147.000000         4.668663270       363.741796291     -1297.778688044     -1292.655367830        11.441736773
       148          148.000000         4.607272397       358.958751312     -1297.736722809     -1292.669102839        11.381086849
       149          149.000000         4.485021216       349.433998357     -1297.594902315     -1292.643911850        11.427553367
       150          150.000000         4.572380088       356.240244839     -1297.769310718     -1292.725344292        11.388917383
       151          151.000000         4.516294127       351.870512671     -1297.724751713     -1292.731213182        11.415555742
       152          152.000000         4.459773874       347.466944178     -1297.658480152     -1292.715866307        11.397319876
       153          153.000000         4.451322445       346.808482046     -1297.690417439     -1292.750708154        11.379408028
       154          154.000000         4.330993514       337.433494167     -1297.511482829     -1292.686653471        11.437414020
       155          155.000000         4.403349310       343.070830986     -1297.625590696     -1292.723024974        11.394140884
       156          156.000000         4.396681812       342.551357331     -1297.647027259     -1292.745739388        12.041407172
       157          157.000000         4.274021336       332.994715635     -1297.525969290     -1292.742065862        11.444424123
       158          158.000000         4.317516627       336.383491938     -1297.639705308     -1292.807132721        12.012693744
       159          159.000000         4.265581540       332.337159839     -1297.628337211     -1292.842581433        12.033277676
       160          160.000000         4.262732640       332.115198271     -1297.631114980     -1292.843179172        12.007356137
       161          161.000000         4.261046387       331.983820045     -1297.692098379     -1292.900879340        12.015233055
       162          162.000000         4.095448985       319.081905105     -1297.529561295     -1292.899125768        11.416847985
       163          163.000000         4.129408683       321.727750558     -1297.630802418     -1292.961749798        12.002585385
       164          164.000000         4.138109141       322.405614883     -1297.635811009     -1292.953452172        12.027241342
       165          165.000000         4.055355526       315.958170074     -1297.573814626     -1292.969716146        11.976092357
       166          166.000000         4.076802194       317.629108617     -1297.685247584     -1293.055322292        11.343693573
       167          167.000000         3.973325260       309.567082388     -1297.612110621     -1293.081401791        11.975853864
       168          168.000000         3.985915274       310.547987189     -1297.652510264     -1293.105085004        11.977507230
       169          169.000000         4.048087269       315.391890497     -1297.797932179     -1293.184250738        11.966277473
       170          170.000000         3.904344412       304.192692354     -1297.648809945     -1293.174897575        11.373403672
       171          171.000000         3.896649371       303.593161430     -1297.737157315     -1293.267126254        11.367706828
       172          172.000000         3.879178284       302.231965684     -1297.768430614     -1293.312153513        11.335823201
       173          173.000000         3.836445995       298.902635854     -1297.732729945     -1293.315579649        11.363994230
       174          174.000000         3.902331446       304.035859434     -1297.855643424     -1293.369075419        11.346273400
       175          175.000000         3.788130616       295.138320112     -1297.750216998     -1293.374412087        11.390149515
       176          176.000000         3.764275988       293.279774166     -1297.772818267     -1293.417575303        11.323379859
       177          177.000000         3.824561657       297.976711210     -1297.866164084     -1293.447411148        11.333276048
       178          178.000000         3.736708927       291.131987572     -1297.763059677     -1293.429020043        11.365532465
       179          179.000000         3.761959770       293.099314561     -1297.833419187     -1293.471095332        11.342416327
       180          180.000000         3.707925381       288.889423069     -1297.800812953     -1293.489577012        11.349225070
       181          181.000000         3.636778791       283.346297145     -1297.715377412     -1293.472470337        11.361835755
       182          182.000000         3.721332709       289.934005938     -1297.854278990     -1293.524081010        11.384886499
       183          183.000000         3.640678984       283.650166334     -1297.755874778     -1293.503665287        11.344432820
       184          184.000000         3.619274593       281.982521637     -1297.713612962     -1293.480259098        11.375478748
       185          185.000000         3.660389163       285.185812800     -1297.801329421     -1293.524385936        11.341400523
       186          186.000000         3.582449469       279.113427032     -1297.684255784     -1293.482862877        11.377316177
       187          187.000000         3.644693624       283.962952341     -1297.756526468     -1293.490585199        11.387505133
       188          188.000000         3.626242124       282.525371321     -1297.768772023     -1293.519034598        11.331680693
       189          189.000000         3.585349713       279.339388875     -1297.703416335     -1293.492411828        11.347290263
       190          190.000000         3.695785534       287.943591330     -1297.811927852     -1293.488379443        11.370615806
       191          191.000000         3.650491468       284.414670148     -1297.732327186     -1293.452002303        11.359977927
       192          192.000000         3.661661472       285.284940032     -1297.787670456     -1293.494172942        11.353766613
       193          193.000000         3.714093771       289.370010584     -1297.866190143     -1293.518295515        11.357545286
       194          194.000000         3.665009913       285.545821609     -1297.771637177     -1293.470907536        11.373493340
       195          195.000000         3.758201361       292.806491901     -1297.868984173     -1293.473182379        11.360803973
       196          196.000000         3.750789661       292.229036382     -1297.846552092     -1293.456295845        11.350432485
       197          197.000000         3.715593047       289.486821180     -1297.737004647     -1293.380124169        11.342063192
       198          198.000000         3.832301418       298.579726322     -1297.841631070     -1293.366238192        11.336985424
       199          199.000000         3.816836214       297.374811638     -1297.795811436     -1293.334075364        11.359059896
       200          200.000000         3.860696565       300.792030187     -1297.824987721     -1293.317593738        11.351786025
       201          201.000000         3.908690474       304.531299788     -1297.875126556     -1293.317929133        11.395995546
       202          202.000000         3.842190065       299.350164041     -1297.772214748     -1293.279714744        11.366065297
       203          203.000000         3.944007549       307.282900316     -1297.862481069     -1293.266360395        11.330667786
       204          204.000000         3.963291538       308.785341748     -1297.835834726     -1293.218591992        11.377136528
       205          205.000000         3.940707934       307.025822898     -1297.783422656     -1293.186914048        11.925834224
       206          206.000000         4.025754064       313.651880586     -1297.865416519     -1293.181985827        11.963781971
       207          207.000000         3.990422475       310.899149317     -1297.771921614     -1293.121911037        11.974739704
       208          208.000000         4.053461999       315.810642831     -1297.794531660     -1293.079540927        11.337480456
       209          209.000000         4.103195889       319.685476681     -1297.848629038     -1293.081903270        11.354715105
       210          210.000000         4.033021523       314.218098060     -1297.724470822     -1293.025882517        11.334479641
       211          211.000000         4.130856568       321.840557196     -1297.812235647     -1293.013734490        11.360768881
       212          212.000000         4.156570733       323.843982195     -1297.798171614     -1292.971798332        11.410582911
       213          213.000000         4.155184637       323.735989578     -1297.767055352     -1292.939848426        11.330870420
       214          214.000000         4.243193190       330.592853591     -1297.963729863     -1293.046212674        11.327015504
       215          215.000000         4.199708274       327.204885653     -1297.841624789     -1292.965207057        11.970646739
       216          216.000000         4.266324478       332.395043186     -1297.845032305     -1292.899537546        11.388301816
       217          217.000000         4.332899242       337.581972000     -1297.925401823     -1292.910751873        11.363478549
       218          218.000000         4.268340611       332.552122760     -1297.809337864     -1292.856574533        11.321776945
       219          219.000000         4.348156782       338.770707328     -1297.900279648     -1292.864939169        11.365034997
       220          220.000000         4.361927382       339.843593228     -1297.882994481     -1292.830996778        11.323586877
       221          221.000000         4.374562935       340.828046017     -1297.878964193     -1292.811335701        11.338097785
       222          222.000000         4.461164464       347.575286941     -1297.987674421     -1292.830310260        11.348040245
       223          223.000000         4.389756014       342.011759141     -1297.904542222     -1292.815331077        11.384147871
       224          224.000000         4.432916501       345.374450319     -1297.943271616     -1292.807548941        11.967533585
       225          225.000000         4.501475938       350.716007734     -1297.992809758     -1292.785021708        11.359603107
       226          226.000000         4.454180808       347.031180945     -1297.895525217     -1292.731396283        11.306597460
       227          227.000000         4.509775171       351.362612103     -1297.997684336     -1292.774206312        11.357880827