#     Step Nr.          Time[fs]        Kin.[a.u.]          Temp[K]            Pot.[a.u.]        Cons Qty[a.u.]        UsedTime[s]
         0            0.000000         3.844830508       300.000000000     -1263.041987509     -1259.196681978         0.000000000
         1            1.000000         3.864311105       301.520009564     -1263.152899726     -1259.287256218        41.273771930
         2            2.000000         3.714989033       289.868879098     -1262.978078365     -1259.260914205        11.508185286
         3            3.000000         3.748231801       292.462707483     -1263.018379974     -1259.267164024        10.875576664
         4            4.000000         3.812514675       297.478497411     -1263.082447458     -1259.266147219        10.959699119
         5            5.000000         3.739832140       291.807308469     -1262.966103873     -1259.221695232        10.871047681
         6            6.000000         3.781752685       295.078236378     -1263.015102117     -1259.228002940        10.907862348
         7            7.000000         3.804241733       296.832985899     -1263.008820465     -1259.198468483        10.877695698
         8            8.000000         3.900598392       304.351392090     -1263.077752432     -1259.170274244        10.298862690
         9            9.000000         3.989310195       311.273294330     -1263.180056107     -1259.183066669        10.917176923
        10           10.000000         3.824737140       298.432177874     -1262.967035203     -1259.133804130        10.933329562
        11           11.000000         3.776040702       294.632548345     -1262.917944791     -1259.132618594        10.329141347
        12           12.000000         3.826543232       298.573101466     -1262.975355755     -1259.138746312        10.312765084
        13           13.000000         3.857494697       300.988146734     -1262.978169322     -1259.109823305        10.292452125
        14           14.000000         3.956881501       308.742985618     -1263.130909561     -1259.162373788        10.897536222
        15           15.000000         3.900310310       304.328913977     -1263.045617628     -1259.132826666        10.895139115
        16           16.000000         3.904787322       304.678241135     -1263.007980918     -1259.089878997        10.313802527
        17           17.000000         4.013090798       313.128819789     -1263.147423184     -1259.120156481        10.890117574
        18           18.000000         3.914780282       305.457960288     -1262.997320387     -1259.067472373        10.318794908
        19           19.000000         3.840933066       299.695894873     -1262.933851765     -1259.076963502        10.354020908
        20           20.000000         3.807322033       297.073331936     -1262.916537421     -1259.092384561        10.314988879
        21           21.000000         3.822331870       298.244502175     -1262.915000216     -1259.074970053        10.372116676
        22           22.000000         3.979013934       310.469909566     -1263.136633467     -1259.139034954        10.329022789
        23           23.000000         3.934870999       307.025575529     -1263.078662797     -1259.124285577        10.336807951
        24           24.000000         3.861282266       301.283678745     -1262.983384676     -1259.101670538        10.309082856
        25           25.000000         3.910496011       305.123672076     -1263.070390391     -1259.138533089        10.302049773
        26           26.000000         3.850977209       300.479607665     -1262.998274597     -1259.124997246        10.328990810
        27           27.000000         3.844909027       300.006126600     -1263.005137555     -1259.136994722        10.348693466
        28           28.000000         3.796127075       296.199824710     -1262.970829684     -1259.150542687        10.317238163
        29           29.000000         3.750385862       292.630782052     -1262.899040205     -1259.123589108        10.367738854
        30           30.000000         3.913228246       305.336859818     -1263.102260536     -1259.163061241        10.325653739
        31           31.000000         3.913465682       305.355386172     -1263.086719852     -1259.146348131        10.334771473
        32           32.000000         3.806595774       297.016664282     -1262.970131017     -1259.135695785        10.327942435
        33           33.000000         3.754018220       292.914203551     -1262.948469325     -1259.165703588        10.344983285
        34           34.000000         3.694694220       288.285338888     -1262.852366822     -1259.128048146        10.345078237
        35           35.000000         3.800772738       296.562311136     -1262.993693787     -1259.162439457        10.942397822
        36           36.000000         3.818609677       297.954071248     -1263.002515288     -1259.152563528        10.913673615
        37           37.000000         3.742025031       291.978412788     -1262.892822470     -1259.118608911        10.908708788
        38           38.000000         3.840759297       299.682336225     -1263.019675269     -1259.145894504        10.379057296
        39           39.000000         3.874853828       302.342624951     -1263.054075378     -1259.145354918        10.917435743
        40           40.000000         3.853912915       300.708671548     -1262.992108682     -1259.103477847        10.303997831
        41           41.000000         3.782456223       295.133131224     -1262.928031851     -1259.110015995        10.916102177
        42           42.000000         3.642148123       284.185332614     -1262.756445579     -1259.077933013        10.365714176
        43           43.000000         3.750075747       292.606584782     -1262.888745504     -1259.101537197        10.315399874
        44           44.000000         3.862752217       301.398374417     -1263.023372330     -1259.122715028        10.328323467
        45           45.000000         3.821349641       298.167861976     -1262.954965855     -1259.094931545        10.329049632
        46           46.000000         3.842169945       299.792404630     -1262.978437659     -1259.096808606        10.322018871
        47           47.000000         3.817826476       297.892960520     -1262.939615328     -1259.081557220        10.319298241
        48           48.000000         3.857010220       300.950344475     -1262.987151041     -1259.089138873        10.334649457
        49           49.000000         3.869766238       301.945656330     -1263.016812851     -1259.105267230        10.303266818
        50           50.000000         3.697793600       288.527173743     -1262.784188018     -1259.043853059        10.328923197
        51           51.000000         3.711221259       289.574891586     -1262.807501586     -1259.053016761        10.329269636
        52           52.000000         3.823817924       298.360454324     -1262.943352941     -1259.075560602        10.327260017
        53           53.000000         3.866243089       301.670756115     -1262.945077429     -1259.034140173        10.375595165
        54           54.000000         3.885191683       303.149255185     -1263.004098298     -1259.073483021        10.911166245
        55           55.000000         3.757022083       293.148585501     -1262.898177704     -1259.095008277        10.964434247
        56           56.000000         3.763670468       293.667337998     -1262.935965857     -1259.125449469        10.925260693
        57           57.000000         3.871577889       302.087013793     -1263.074009526     -1259.154889859        10.920624776
        58           58.000000         3.793930485       296.028431690     -1262.924924518     -1259.082752628        10.391144229
        59           59.000000         3.765394904       293.801890267     -1262.907057978     -1259.092740227        10.335080391
        60           60.000000         3.775528786       294.592605155     -1262.922309594     -1259.097192507        10.369765721
        61           61.000000         3.828111188       298.695444168     -1262.970465430     -1259.092107276        10.331760226
        62           62.000000         3.920800816       305.927723528     -1263.100945207     -1259.129228130        10.374084575
        63           63.000000         3.791009338       295.800503770     -1262.932743924     -1259.090142203        10.329196246
        64           64.000000         3.717251411       290.045405371     -1262.866515477     -1259.097022074        10.930285219
        65           65.000000         3.804509984       296.853916653     -1262.971709948     -1259.114327869        10.955116238
        66           66.000000         3.844861384       300.002409133     -1262.986501979     -1259.088136386        10.324496539
        67           67.000000         3.900741339       304.362545777     -1263.060472664     -1259.105586136        10.318765929
        68           68.000000         3.850532523       300.444910258     -1262.991013024     -1259.085684749        10.343009861
        69           69.000000         3.823032477       298.299168342     -1262.935672891     -1259.057198336        10.950426862
        70           70.000000         3.932947222       306.875469294     -1263.081966527     -1259.092924260        10.898873400
        71           71.000000         3.875914266       302.425367596     -1263.011225673     -1259.078544684        10.930586124
        72           72.000000         3.790738319       295.779357013     -1262.907890014     -1259.059719322        10.374006277
        73           73.000000         3.796870005       296.257793153     -1262.928003299     -1259.073049858        10.342286991
        74           74.000000         3.826706061       298.585806544     -1262.940674764     -1259.055239315        10.322458869
        75           75.000000         3.951573512       308.328819998     -1263.092441638     -1259.081480127        10.369031021
        76           76.000000         3.914934603       305.470001415     -1263.059750315     -1259.084743159        10.344773948
        77           77.000000         3.792549058       295.920643300     -1262.911504755     -1259.058199652        10.332472837
        78           78.000000         3.839450085       299.580182507     -1262.995240872     -1259.094363229        10.917031599
        79           79.000000         3.848072101       300.252931265     -1263.004837284     -1259.094662330        10.351439480
        80           80.000000         3.847190682       300.184156901     -1263.010519652     -1259.100548776        10.368179381
        81           81.000000         3.808221780       297.143536339     -1262.979110511     -1259.107434192        10.369173320
        82           82.000000         3.741055100       291.902732124     -1262.892907511     -1259.087739732        10.370964190
        83           83.000000         3.875912613       302.425238609     -1263.082654442     -1259.141979694        10.973641690
        84           84.000000         3.925119189       306.264672533     -1263.145807970     -1259.155256238        10.922439452
        85           85.000000         3.838034546       299.469732482     -1263.031276688     -1259.127128593        10.906421162
        86           86.000000         3.825672192       298.505136990     -1263.035984418     -1259.143524701        10.942905040
        87           87.000000         3.813292101       297.539157521     -1263.003809943     -1259.123061135        10.949472634
        88           88.000000         3.896589358       304.038579828     -1263.093207998     -1259.128489226        10.378406756
        89           89.000000         3.930756726       306.704551836     -1263.136724508     -1259.137144823        10.364531774
        90           90.000000         3.830763928       298.902429070     -1262.970844212     -1259.070554350        10.397827346
        91           91.000000         3.873467522       302.234455877     -1263.041193923     -1259.097500505        10.375806913
        92           92.000000         3.921084306       305.949843359     -1263.139936562     -1259.147910796        10.377560554
        93           93.000000         3.899886797       304.295868560     -1263.102549781     -1259.130988289        10.386719784
        94           94.000000         3.871845610       302.107903229     -1263.093940295     -1259.149678842        10.969017047
        95           95.000000         3.785594651       295.378012865     -1262.967503506     -1259.108757218        10.931730043
        96           96.000000         3.846445271       300.125994819     -1263.048106938     -1259.127783171        10.940015858
        97           97.000000         3.922710826       306.076755617     -1263.133346800     -1259.136015124        10.932824505
        98           98.000000         3.838129308       299.477126501     -1263.027632756     -1259.114127686        10.989781769
        99           99.000000         3.809729789       297.261201589     -1263.009963490     -1259.124112160        10.385474611
       100          100.000000         3.793035012       295.958560770     -1262.990701084     -1259.120808011        10.377808312
       101          101.000000         3.803379718       296.765725538     -1262.989803481     -1259.108837564        10.959886877
       102          102.000000         3.831095145       298.928272879     -1263.035674359     -1259.126267197        10.388083229
       103          103.000000         3.719403523       290.213327890     -1262.894033083     -1259.095603939        10.380052973
       104          104.000000         3.725696185       290.704324476     -1262.922073954     -1259.116668165        10.343344849
       105          105.000000         3.824088945       298.381601229     -1262.998825521     -1259.094352706        10.403510749
       106          106.000000         3.818258157       297.926643213     -1262.968370702     -1259.069050949        10.996209022
       107          107.000000         3.821042830       298.143922465     -1262.983644800     -1259.080866086        10.405439923
       108          108.000000         3.762952816       293.611341837     -1262.913864012     -1259.068510160        10.369786631
       109          109.000000         3.763766671       293.674844432     -1262.908500757     -1259.061685599        10.366468322
       110          110.000000         3.857622353       300.998107341     -1263.043299069     -1259.101984452        10.397489475
       111          111.000000         3.793633004       296.005220228     -1262.974107802     -1259.096135599        10.418975327
       112          112.000000         3.741002250       291.898608399     -1262.906938463     -1259.080967666        10.361942399
       113          113.000000         3.757331758       293.172748422     -1262.981540285     -1259.138630254        10.944180720
       114          114.000000         3.776109281       294.637899362     -1262.981726754     -1259.119441689        10.949465122
       115          115.000000         3.835671888       299.285381777     -1263.068124295     -1259.145683454        10.932504743
       116          116.000000         3.764590034       293.739088859     -1262.997594120     -1259.145645801        10.925146803
       117          117.000000         3.706717472       289.223475314     -1262.932706297     -1259.138064394        10.959815117
       118          118.000000         3.778185512       294.799901120     -1263.041492546     -1259.174837191        10.909631265
       119          119.000000         3.780731094       294.998524847     -1263.037385579     -1259.167646527        10.924713062
       120          120.000000         3.771789177       294.300815243     -1263.026806053     -1259.165482052        10.948225450
       121          121.000000         3.735807617       291.493287574     -1263.007429962     -1259.181576624        10.916928092
       122          122.000000         3.697146283       288.476665641     -1262.954535926     -1259.166857191        10.910053704
       123          123.000000         3.773056004       294.399661772     -1263.057637133     -1259.193583481        10.902702136
       124          124.000000         3.744645616       292.182888782     -1263.002473371     -1259.166376470        10.938853424
       125          125.000000         3.675666992       286.800704306     -1262.921679524     -1259.154131793        10.910882082
       126          126.000000         3.711001550       289.557748423     -1262.959160173     -1259.155878560        10.922005771
       127          127.000000         3.729274965       290.983565363     -1262.973483005     -1259.151550201        10.897090437
       128          128.000000         3.781747659       295.077844199     -1263.050441263     -1259.175674344        10.918992182
       129          129.000000         3.772003801       294.317561679     -1263.041297953     -1259.175923514        10.887120174
       130          130.000000         3.709819160       289.465490251     -1262.968291105     -1259.164766927        10.923706220
       131          131.000000         3.779957091       294.938131847     -1263.031238065     -1259.157262658        10.921354182
       132          132.000000         3.808678105       297.179142013     -1263.056440492     -1259.153438734        10.908421056
       133          133.000000         3.783024281       295.177454974     -1263.019478633     -1259.141832010        10.904085729
       134          134.000000         3.771589650       294.285246823     -1263.046201122     -1259.179702005        11.478177950
       135          135.000000         3.735792791       291.492130797     -1262.998876043     -1259.167901679        11.557932010
       136          136.000000         3.812724061       297.494835188     -1263.088567172     -1259.180405017        11.523512980
       137          137.000000         3.853913490       300.708716414     -1263.094837500     -1259.145231032        10.922558028
       138          138.000000         3.784981738       295.330189212     -1262.994429357     -1259.113499957        10.929461401
       139          139.000000         3.795442347       296.146397544     -1263.018988298     -1259.127353760        10.926317610
       140          140.000000         3.795112407       296.120653366     -1263.013539941     -1259.121998862        10.924058739
       141          141.000000         3.798972565       296.421849302     -1263.024344765     -1259.128715031        10.931504579
       142          142.000000         3.797012892       296.268942187     -1263.079177786     -1259.185286761        10.920683764
       143          143.000000         3.723631999       290.543262494     -1262.983667917     -1259.162948496        11.543841219
       144          144.000000         3.759724982       293.359484163     -1263.027288202     -1259.170287030        10.930859264
       145          145.000000         3.809042763       297.207595106     -1263.084394307     -1259.177899437        10.907958454
       146          146.000000         3.784794636       295.315590194     -1263.084560855     -1259.202145103        11.525763297
       147          147.000000         3.799402036       296.455359538     -1263.092345371     -1259.195162982        11.524106929
       148          148.000000         3.782613924       295.145436104     -1263.090379231     -1259.209834189        12.127004158
       149          149.000000         3.807664827       297.100079100     -1263.066912815     -1259.161175953        11.537556920
       150          150.000000         3.853347120       300.664524353     -1263.112949076     -1259.161393358        10.906011719
       151          151.000000         3.801186567       296.594600928     -1263.081440579     -1259.181908468        11.491219448
       152          152.000000         3.818650433       297.957251245     -1263.105892874     -1259.188766271        11.497483201
       153          153.000000         3.865364816       301.602227275     -1263.175356153     -1259.211386712        11.537327476
       154          154.000000         3.873934698       302.270908182     -1263.173294912     -1259.200621767        11.477681763
       155          155.000000         3.892879083       303.749078778     -1263.197259209     -1259.205499872        11.535757251
       156          156.000000         3.825224262       298.470186435     -1263.109283834     -1259.185029465        10.949684389
       157          157.000000         3.812349700       297.465624952     -1263.096848374     -1259.185321260        10.905987885
       158          158.000000         3.870979007       302.040284922     -1263.117866227     -1259.147564769        10.336744461
       159          159.000000         3.838216017       299.483892116     -1263.075106039     -1259.137417496        10.901246576
       160          160.000000         3.835643465       299.283164004     -1263.078695929     -1259.143429448        10.896597108
       161          161.000000         3.838308847       299.491135357     -1263.090936256     -1259.152853897        10.916373095
       162          162.000000         3.836265784       299.331721565     -1263.080803023     -1259.144612890        10.316467080
       163          163.000000         3.877638457       302.559900774     -1263.113467490     -1259.135751897        10.306523621
       164          164.000000         3.811485979       297.398231521     -1263.040298159     -1259.128577002        10.911599442
       165          165.000000         3.747333092       292.392584034     -1262.971968638     -1259.124249579        10.901056698
       166          166.000000         3.761937512       293.532120919     -1262.970290533     -1259.107832603        10.367725452
       167          167.000000         3.761211588       293.475479313     -1262.947155640     -1259.085303882        10.311179193
       168          168.000000         3.794283248       296.055956705     -1262.997549035     -1259.102519479        10.328584177
       169          169.000000         3.778606867       294.832778135     -1262.969600863     -1259.090151082        10.942829007
       170          170.000000         3.749925794       292.594884412     -1262.928893626     -1259.078040917        10.877016177
       171          171.000000         3.804307337       296.838104721     -1263.000393201     -1259.095090235        10.313713852
       172          172.000000         3.791175887       295.813499134     -1262.961741186     -1259.069509309        10.357298587
       173          173.000000         3.757213141       293.163493129     -1262.923521644     -1259.065202759        10.315523040
       174          174.000000         3.752117672       292.765909756     -1262.924322216     -1259.071065100        10.313889354
       175          175.000000         3.742886723       292.045647877     -1262.904101442     -1259.060059435        10.298348669
       176          176.000000         3.798865028       296.413458554     -1262.983267761     -1259.083249843        10.361901112
       177          177.000000         3.801091242       296.587162994     -1263.001168003     -1259.098936799        10.891380735
       178          178.000000         3.762969596       293.612651152     -1262.953976622     -1259.089889791        10.916437974
       179          179.000000         3.796213439       296.206563382     -1262.996144176     -1259.098851078        10.888977520
       180          180.000000         3.803341281       296.762726455     -1262.990302356     -1259.085930157        10.322749062
       181          181.000000         3.814416373       297.626880966     -1262.985770328     -1259.070380921        10.345571697
       182          182.000000         3.819028356       297.986739412     -1262.988804190     -1259.068868060        10.289645618
       183          183.000000         3.776227376       294.647113897     -1262.885551399     -1259.008488628        10.884893950
       184          184.000000         3.810972231       297.358145413     -1262.918970683     -1259.007248410        10.864208169
       185          185.000000         3.834040390       299.158081133     -1262.966220241     -1259.031524465        10.891376786
       186          186.000000         3.804447272       296.849023431     -1262.887170818     -1258.982167956        10.869744806
       187          187.000000         3.810699479       297.336863404     -1262.914977275     -1259.003830749        10.851914452
       188          188.000000         3.790490295       295.760004494     -1262.904978514     -1259.014159045        10.859694051
       189          189.000000         3.804590474       296.860197037     -1262.963481273     -1259.058691680        10.851300268
       190          190.000000         3.822736125       298.276044976     -1262.901769012     -1258.978974909        11.425873319
       191          191.000000         3.777209498       294.723745802     -1262.833020053     -1258.955901988        11.449526148
       192          192.000000         3.788243951       295.584729397     -1262.861827719     -1258.973838995        10.853346352
       193          193.000000         3.806098732       296.977881627     -1262.928356711     -1259.022692126        10.834980866
       194          194.000000         3.802241070       296.676880474     -1262.912550520     -1259.010934849        10.835965794
       195          195.000000         3.811380447       297.389997193     -1262.927670794     -1259.017119362        10.839647150
       196          196.000000         3.780185525       294.955955792     -1262.891413826     -1259.012272325        10.894547485
       197          197.000000         3.790639700       295.771662141     -1262.813435136     -1258.924070350        10.828689262
       198          198.000000         3.825975315       298.528788742     -1262.831667606     -1258.907214802        10.834863031
       199          199.000000         3.802785056       296.719325964     -1262.787719962     -1258.886716103        10.791012492
       200          200.000000         3.805514890       296.932326269     -1262.768680166     -1258.865217983        10.818879908
       201          201.000000         3.807181253       297.062347325     -1262.765323261     -1258.860480393        10.865704358
       202          202.000000         3.814613316       297.642247810     -1262.732297590     -1258.820322582        10.809773069
       203          203.000000         3.841139261       299.711983593     -1262.764449726     -1258.826262555        10.807810618
       204          204.000000         3.797664479       296.319783455     -1262.708757265     -1258.814367670        10.802296173
       205          205.000000         3.787388264       295.517962834     -1262.697005942     -1258.813229140        10.229004608
       206          206.000000         3.823192524       298.311656296     -1262.734466458     -1258.815241416        10.231623827
       207          207.000000         3.826330272       298.556484908     -1262.762388311     -1258.840396989        10.240861408
       208          208.000000         3.834843794       299.220768165     -1262.785640470     -1258.855520111        10.229494890
       209          209.000000         3.804611944       296.861872278     -1262.775849549     -1258.876356572        10.239801934
       210          210.000000         3.784953851       295.328013216     -1262.750142864     -1258.870718147        10.214358028
       211          211.000000         3.822993776       298.296148625     -1262.809298037     -1258.892265082        10.222931353
       212          212.000000         3.805633570       296.941586550     -1262.828277794     -1258.929054161        10.215972580
       213          213.000000         3.778044588       294.788905239     -1262.780504597     -1258.909335360        10.795147382
       214          214.000000         3.773158777       294.407680816     -1262.758051191     -1258.892255233        10.776188457
       215          215.000000         3.774395776       294.504199988     -1262.752174320     -1258.885654625        10.239436485
       216          216.000000         3.832903777       299.069394755     -1262.822680389     -1258.898195440        10.351620730
       217          217.000000         3.839649813       299.595766683     -1262.827926899     -1258.897260457        10.214187736
       218          218.000000         3.805118908       296.901429078     -1262.793986176     -1258.898429015        10.207981233
       219          219.000000         3.829162769       298.777495717     -1262.816380776     -1258.897378077        10.226392359
       220          220.000000         3.848218428       300.264348695     -1262.854206767     -1258.916768181        10.211615540
       221          221.000000         3.863123471       301.427342158     -1262.871934982     -1258.920228556        10.241062833
       222          222.000000         3.851912644       300.552596681     -1262.874077659     -1258.934232108        10.251938311
       223          223.000000         3.833112175       299.085655438     -1262.802249708     -1258.881866702        10.214202449
       224          224.000000         3.894243573       303.855545633     -1262.888065584     -1258.907233500        10.772590175
       225          225.000000         3.942159262       307.594255716     -1262.975094693     -1258.947045793        10.234375749
       226          226.000000         3.937525735       307.232716202     -1262.969372020     -1258.946657529        10.265796302
       227          227.000000         3.921262144       305.963719489     -1262.952464400     -1258.946710442        10.226647990