#     Step Nr.          Time[fs]        Kin.[a.u.]          Temp[K]            Pot.[a.u.]        Cons Qty[a.u.]        UsedTime[s]
         0            0.000000         3.844830508       300.000000000     -1263.431110102     -1259.585804571         0.000000000
         1            1.000000         3.698718573       288.599346434     -1263.223979347     -1259.523950783        57.523217604
         2            2.000000         3.673861666       286.659840370     -1263.220262185     -1259.544299584        15.886151250
         3            3.000000         3.705132900       289.099836147     -1263.251943546     -1259.543949544        15.332984768
         4            4.000000         3.716154459       289.959813672     -1263.214151989     -1259.494399270        15.269604757
         5            5.000000         3.815389298       297.702795214     -1263.344116189     -1259.524403530        15.316572327
         6            6.000000         3.732409247       291.228123469     -1263.214242002     -1259.476792795        14.649504099
         7            7.000000         3.773802975       294.457945533     -1263.251588040     -1259.472051317        14.657857608
         8            8.000000         3.924325322       306.202729659     -1263.383766003     -1259.453006731        15.317557182
         9            9.000000         3.829713362       298.820456783     -1263.243261245     -1259.406398660        15.296767056
        10           10.000000         3.780600334       294.988322075     -1263.177773550     -1259.389323636        14.038745418
        11           11.000000         3.713236523       289.732136319     -1263.097065419     -1259.375302415        14.030825406
        12           12.000000         3.710730255       289.536580152     -1263.112870462     -1259.392966808        13.991417103
        13           13.000000         3.895782347       303.975611323     -1263.329010247     -1259.423413385        14.037222654
        14           14.000000         3.845280744       300.035130490     -1263.245473279     -1259.389720929        15.304696709
        15           15.000000         3.811491972       297.398699177     -1263.198298884     -1259.375684564        14.607173078
        16           16.000000         3.896226071       304.010233719     -1263.342070427     -1259.434070328        14.714163277
        17           17.000000         3.856750133       300.930050741     -1263.315834247     -1259.446647012        14.626986779
        18           18.000000         3.883179671       302.992264272     -1263.386514602     -1259.490231420        14.658802520
        19           19.000000         3.779657694       294.914770790     -1263.280603668     -1259.487177878        15.283307366
        20           20.000000         3.692576963       288.120135967     -1263.156079800     -1259.449098481        14.633773770
        21           21.000000         3.878229311       302.606003253     -1263.406027475     -1259.512772110        15.313309330
        22           22.000000         3.901596407       304.429264032     -1263.390506752     -1259.473242225        14.611546993
        23           23.000000         3.865886288       301.642916074     -1263.342108634     -1259.459902707        14.031331543
        24           24.000000         3.840954914       299.697599566     -1263.328859300     -1259.470933276        13.990616225
        25           25.000000         3.751111675       292.687414999     -1263.196803569     -1259.428080790        14.663974725
        26           26.000000         3.850518602       300.443823998     -1263.356311722     -1259.487554538        15.257919371
        27           27.000000         3.804763524       296.873699602     -1263.302846193     -1259.479214015        19.091189563
        28           28.000000         3.675444791       286.783366596     -1263.104643255     -1259.409723274        16.572037000
        29           29.000000         3.775029801       294.553670916     -1263.200777614     -1259.405695305        17.790196825
        30           30.000000         3.808388061       297.156510748     -1263.219016312     -1259.390002808        17.177274607
        31           31.000000         3.867785764       301.791126206     -1263.282325262     -1259.393340048        17.210190095
        32           32.000000         3.855701821       300.848254218     -1263.308787473     -1259.431305126        15.271696802
        33           33.000000         3.702145109       288.866708266     -1263.142678480     -1259.418184767        14.617624942
        34           34.000000         3.806138221       296.980962824     -1263.256789431     -1259.427759203        18.467701998
        35           35.000000         3.869281796       301.907856879     -1263.360048711     -1259.467327311        19.135149624
        36           36.000000         3.812983451       297.515074565     -1263.212901233     -1259.375927377        15.275968913
        37           37.000000         3.831298699       298.944155618     -1263.228581853     -1259.372748306        15.290732183
        38           38.000000         3.773128637       294.405329118     -1263.122517918     -1259.324316512        15.225096945
        39           39.000000         3.865284981       301.595997974     -1263.235105879     -1259.344217447        14.689469282
        40           40.000000         3.919831158       305.852064198     -1263.314758746     -1259.368779096        14.583963245
        41           41.000000         3.752178179       292.770630920     -1263.111223979     -1259.332349795        13.993641123
        42           42.000000         3.775575364       294.596239516     -1263.145460011     -1259.342663905        14.632433198
        43           43.000000         3.824255354       298.394585600     -1263.186208224     -1259.334214416        14.604072474
        44           44.000000         3.853540202       300.679589899     -1263.204749059     -1259.322950911        14.584582899
        45           45.000000         3.913363339       305.347400669     -1263.340625751     -1259.398475297        13.962460004
        46           46.000000         3.769919285       294.154913466     -1263.148332601     -1259.349092991        13.955241904
        47           47.000000         3.767882589       293.995996483     -1263.145334655     -1259.347618688        14.625349898
        48           48.000000         3.841121221       299.710576019     -1263.198041436     -1259.326581142        13.965438452
        49           49.000000         3.748057397       292.449099309     -1263.072594006     -1259.293696757        14.598607309
        50           50.000000         3.757571492       293.191454118     -1263.115763359     -1259.326871972        14.042026103
        51           51.000000         3.732789354       291.257782071     -1263.097535386     -1259.332963691        13.324358907
        52           52.000000         3.767515508       293.967354318     -1263.128742381     -1259.329000728        13.995502207
        53           53.000000         3.884950166       303.130410344     -1263.273951166     -1259.356334164        13.285210960
        54           54.000000         3.750445435       292.635430376     -1263.099384856     -1259.315829906        13.372263968
        55           55.000000         3.685610278       287.576547490     -1263.048682803     -1259.329547205        13.343585327
        56           56.000000         3.718330939       290.129637495     -1263.047379058     -1259.295135992        12.704602044
        57           57.000000         3.688968313       287.838564378     -1262.988140719     -1259.264897964        13.305140965
        58           58.000000         3.759586938       293.348713038     -1263.118309814     -1259.324110846        12.650945082
        59           59.000000         3.699942336       288.694832830     -1262.973325689     -1259.238451769        12.708560992
        60           60.000000         3.674603331       286.717710201     -1262.936078195     -1259.226253331        12.653239459
        61           61.000000         3.792391467       295.908346940     -1263.097550192     -1259.269672335        12.718832478
        62           62.000000         3.716208917       289.964062813     -1262.989902100     -1259.237954384        12.671951313
        63           63.000000         3.676427491       286.860043650     -1262.988690272     -1259.276298453        12.677092563
        64           64.000000         3.680193971       287.153930169     -1263.005146621     -1259.288794317        12.681436244
        65           65.000000         3.663950896       285.886534246     -1262.967277573     -1259.267005872        12.696442898
        66           66.000000         3.788647850       295.616244375     -1263.168434305     -1259.343331937        12.696142461
        67           67.000000         3.735251998       291.449934413     -1263.139227429     -1259.367400619        13.293045849
        68           68.000000         3.670765353       286.418244845     -1263.062297102     -1259.354859403        12.698696163
        69           69.000000         3.765575211       293.815959047     -1263.200612925     -1259.398297021        12.728442993
        70           70.000000         3.752859601       292.823800145     -1263.154889003     -1259.365237377        13.281707477
        71           71.000000         3.775109994       294.559928115     -1263.185032244     -1259.373095798        13.340199441
        72           72.000000         3.743718711       292.110565331     -1263.207969895     -1259.427405134        13.953801043
        73           73.000000         3.701272119       288.798591630     -1263.122161521     -1259.384043727        13.316523526
        74           74.000000         3.875325114       302.379397931     -1263.281522237     -1259.369374953        12.655237820
        75           75.000000         3.888993549       303.445902838     -1263.282045787     -1259.356252103        12.797973614
        76           76.000000         3.799994830       296.501613392     -1263.169494320     -1259.332715012        12.694197681
        77           77.000000         3.814497028       297.633174161     -1263.207921519     -1259.356661938        12.663605068
        78           78.000000         3.781648346       295.070095132     -1263.115267468     -1259.296885733        12.666386176
        79           79.000000         3.879205231       302.682151213     -1263.250847268     -1259.334947623        12.735306177
        80           80.000000         3.893278046       303.780208590     -1263.197482736     -1259.267545190        12.634921204
        81           81.000000         3.786417352       295.442205615     -1263.041063855     -1259.218015028        13.305559535
        82           82.000000         3.860525515       301.224631906     -1263.143289890     -1259.246168134        12.651500560
        83           83.000000         3.874495097       302.314634326     -1263.151023305     -1259.239966174        12.732434172
        84           84.000000         3.830607163       298.890197256     -1263.030304631     -1259.163165223        12.687821984
        85           85.000000         3.781713602       295.075186856     -1262.996540141     -1259.178326852        12.666848406
        86           86.000000         3.655275751       285.209640024     -1262.832631712     -1259.140902327        12.643738993
        87           87.000000         3.754368214       292.941512461     -1262.956563832     -1259.165819591        12.643734451
        88           88.000000         3.840199339       299.638644444     -1263.090026589     -1259.213549542        12.731521610
        89           89.000000         3.747780267       292.427475738     -1262.928591450     -1259.144637692        12.638128184
        90           90.000000         3.762163325       293.549740347     -1262.960035992     -1259.161819537        12.618151296
        91           91.000000         3.745873938       292.278730870     -1262.922439792     -1259.140650906        12.648495335
        92           92.000000         3.792481014       295.915334058     -1262.957028328     -1259.128790150        12.691069961
        93           93.000000         3.840766976       299.682935370     -1263.073635188     -1259.197282471        12.712173648
        94           94.000000         3.694983320       288.307896472     -1262.879996038     -1259.149603053        12.660405859
        95           95.000000         3.721682226       290.391127869     -1262.940713837     -1259.183821616        12.681391560
        96           96.000000         3.831363292       298.949195605     -1263.067395057     -1259.201049107        12.616669137
        97           97.000000         3.833739654       299.134615631     -1263.065437856     -1259.196953567        12.674101170
        98           98.000000         3.842219845       299.796298138     -1263.098244835     -1259.221522870        13.253955513
        99           99.000000         3.722608375       290.463392354     -1262.990713750     -1259.233847999        13.293726772
       100          100.000000         3.731859367       291.185218091     -1263.009627208     -1259.243774551        13.260926545
       101          101.000000         3.862123674       301.349331173     -1263.212914644     -1259.317088662        13.277415663
       102          102.000000         3.790145899       295.733132410     -1263.088047703     -1259.264497001        12.643530756
       103          103.000000         3.774258953       294.493524098     -1263.081882055     -1259.274524627        13.312741678
       104          104.000000         3.792996160       295.955529276     -1263.148410125     -1259.322638035        13.284862343
       105          105.000000         3.831942199       298.994365884     -1263.103503059     -1259.239122988        13.307305507
       106          106.000000         3.929773785       306.627856011     -1263.243635851     -1259.281772890        13.282044694
       107          107.000000         3.808457327       297.161915355     -1263.097750134     -1259.257543205        13.316850349
       108          108.000000         3.748412749       292.476826270     -1263.026963032     -1259.247141367        13.863139682
       109          109.000000         3.850009523       300.404102185     -1263.233008828     -1259.351951795        14.532097507
       110          110.000000         3.854897732       300.785513694     -1263.223911747     -1259.338338274        14.500696387
       111          111.000000         3.912427473       305.274377985     -1263.290339522     -1259.347611801        14.596283562
       112          112.000000         3.879105832       302.674395395     -1263.308758285     -1259.399721603        15.148674056
       113          113.000000         3.842213361       299.795792276     -1263.188802893     -1259.317022029        14.558444381
       114          114.000000         3.965144215       309.387699163     -1263.374915516     -1259.380571835        15.765551861
       115          115.000000         3.928560215       306.533164949     -1263.309575438     -1259.352171522        14.519437402
       116          116.000000         3.868822109       301.871988953     -1263.237961861     -1259.340635116        14.495613258
       117          117.000000         3.895471898       303.951387969     -1263.280472785     -1259.356830836        14.546146158
       118          118.000000         3.891851435       303.668894669     -1263.240345696     -1259.320654329        14.515385728
       119          119.000000         3.982075571       310.708799457     -1263.295111657     -1259.285521930        13.889593124
       120          120.000000         3.945010705       307.816744858     -1263.309380325     -1259.337162451        15.140418779
       121          121.000000         3.846869448       300.159092055     -1263.183168188     -1259.309378271        14.526424609
       122          122.000000         3.917323972       305.656436339     -1263.260012977     -1259.316053178        14.486701205
       123          123.000000         3.892511566       303.720402603     -1263.198962229     -1259.280092539        13.840548690
       124          124.000000         3.865224936       301.591312850     -1263.127840967     -1259.236527796        13.264766876
       125          125.000000         3.859010130       301.106391147     -1263.130705981     -1259.245875303        13.287981566
       126          126.000000         3.813178763       297.530314137     -1263.045800278     -1259.207068624        13.248600792
       127          127.000000         3.943147269       307.671346809     -1263.160703732     -1259.192279893        12.638656326
       128          128.000000         3.954323891       308.543423342     -1263.172300224     -1259.192967833        12.659509297
       129          129.000000         3.839916082       299.616542781     -1263.042776640     -1259.178101271        12.611558031
       130          130.000000         3.856822223       300.935675671     -1263.080630153     -1259.199295944        12.656567771
       131          131.000000         3.839219949       299.562225766     -1263.041830650     -1259.178348071        12.641582992
       132          132.000000         3.878321699       302.613211977     -1263.045654168     -1259.143323316        12.640506405
       133          133.000000         3.890734038       303.581707655     -1263.071916477     -1259.157426163        12.602020066
       134          134.000000         3.793972247       296.031690225     -1262.942996833     -1259.125515738        12.684217058
       135          135.000000         3.880939426       302.817464969     -1263.048104764     -1259.143913060        12.720788442
       136          136.000000         3.937570924       307.236242216     -1263.164758910     -1259.204194530        12.666867178
       137          137.000000         3.896456062       304.028179163     -1263.111753822     -1259.192551244        13.269126896
       138          138.000000         3.885356234       303.162094551     -1263.122390073     -1259.214525231        13.218596723
       139          139.000000         3.812367949       297.467048905     -1263.055753211     -1259.221109169        13.303635914
       140          140.000000         3.891902486       303.672877979     -1263.152281851     -1259.238342525        13.268238928
       141          141.000000         3.972904264       309.993191275     -1263.257009663     -1259.262307084        13.247658901
       142          142.000000         3.861782867       301.322739084     -1263.140225207     -1259.256864313        13.303585425
       143          143.000000         3.854957935       300.790211133     -1263.131208691     -1259.254887258        12.663799591
       144          144.000000         3.860956638       301.258271012     -1263.160011850     -1259.277907522        13.275975481
       145          145.000000         3.878297386       302.611314955     -1263.224049398     -1259.324820976        13.247280914
       146          146.000000         3.931255569       306.743474930     -1263.281104411     -1259.329132485        13.301942959
       147          147.000000         3.821684264       298.193971529     -1263.026548761     -1259.184351599        12.602309030
       148          148.000000         3.842163480       299.791900212     -1263.058458678     -1259.195988380        13.271278281
       149          149.000000         3.957434988       308.786172473     -1263.185410435     -1259.207880251        13.332703460
       150          150.000000         3.937635073       307.241247504     -1263.143925937     -1259.186393998        12.651367709
       151          151.000000         3.918608635       305.756674545     -1263.139904659     -1259.201580970        12.604588207
       152          152.000000         3.818467953       297.943012919     -1263.025541802     -1259.187528220        12.608450271
       153          153.000000         3.796164209       296.202722139     -1263.068913480     -1259.253376794        13.647159990
       154          154.000000         3.901682659       304.435994039     -1263.224108094     -1259.303237935        13.344918005
       155          155.000000         3.826442113       298.565211485     -1263.117377236     -1259.271929900        13.254954949
       156          156.000000         3.800950856       296.576209087     -1263.071519855     -1259.251749530        13.246079881
       157          157.000000         3.841865007       299.768611313     -1263.138192973     -1259.277705375        13.325918362
       158          158.000000         3.843071915       299.862782519     -1263.037486461     -1259.175995355        13.265532043
       159          159.000000         3.907330142       304.876649337     -1263.128678719     -1259.203137286        13.334038954
       160          160.000000         3.823086853       298.303411143     -1263.019984378     -1259.178888755        12.630281571
       161          161.000000         3.759530874       293.344338512     -1262.940825682     -1259.163492375        12.684580106
       162          162.000000         3.853354201       300.665076871     -1263.088792694     -1259.217860536        12.637031283
       163          163.000000         3.845145823       300.024602998     -1263.058632063     -1259.196140654        12.728860836
       164          164.000000         3.843070861       299.862700241     -1262.908756194     -1259.048576250        12.634037551
       165          165.000000         3.825359368       298.480728292     -1262.891215125     -1259.048988071        12.638387986
       166          166.000000         3.798422625       296.378939199     -1262.841085809     -1259.026044471        12.631340373
       167          167.000000         3.916670782       305.605469985     -1262.992897565     -1259.059870918        12.698221713
       168          168.000000         3.904244135       304.635857944     -1262.958603588     -1259.038264089        12.660184439
       169          169.000000         3.843960501       299.932116046     -1262.880062221     -1259.020258831        12.643684804
       170          170.000000         3.896661631       304.044219061     -1262.964973629     -1259.052723822        12.052886304
       171          171.000000         3.902324731       304.486092855     -1262.963273401     -1259.045613008        12.097449418
       172          172.000000         3.962562990       309.186294273     -1263.040424141     -1259.062772092        11.997058440
       173          173.000000         3.934722045       307.013953179     -1263.025218076     -1259.075637613        12.699221805
       174          174.000000         3.824607517       298.422063770     -1262.893559524     -1259.054308639        12.629448202
       175          175.000000         3.883009022       302.978949020     -1262.999442747     -1259.102008223        12.673605520
       176          176.000000         3.882636270       302.949864345     -1262.982246089     -1259.085402099        12.699849229
       177          177.000000         3.848099109       300.255038618     -1262.939128508     -1259.077036170        12.665550102
       178          178.000000         3.848772551       300.307585128     -1262.991299565     -1259.128750224        12.696997631
       179          179.000000         3.792801691       295.940355450     -1262.980076388     -1259.173717866        12.655703079
       180          180.000000         3.881392929       302.852850365     -1263.095368790     -1259.200651413        13.307614706
       181          181.000000         3.917321798       305.656266768     -1263.136564090     -1259.206152758        13.362646498
       182          182.000000         3.835322281       299.258103046     -1263.034808237     -1259.186623038        12.640113585
       183          183.000000         3.872696147       302.174267939     -1263.066573109     -1259.181242923        13.329737112
       184          184.000000         3.872258491       302.140118971     -1263.054950072     -1259.170287577        13.282618891
       185          185.000000         3.906434163       304.806738903     -1263.076910836     -1259.158301990        13.276972201
       186          186.000000         3.951704966       308.339076882     -1263.096013653     -1259.132357442        12.652815297
       187          187.000000         3.878630882       302.637336573     -1262.997254190     -1259.106880384        13.322730295
       188          188.000000         3.942613196       307.629674739     -1263.077420417     -1259.123266135        13.307484716
       189          189.000000         3.996137736       311.806025814     -1263.133071731     -1259.125581851        12.664782662
       190          190.000000         3.945100774       307.823772651     -1263.121477568     -1259.165188737        13.252005294
       191          191.000000         3.945489586       307.854110372     -1263.141272467     -1259.184739014        13.378561571
       192          192.000000         3.875672134       302.406474778     -1263.025886386     -1259.139297332        12.629949648
       193          193.000000         3.889075780       303.452319054     -1263.027693103     -1259.127820526        13.286978930
       194          194.000000         3.955032171       308.598688238     -1263.107063138     -1259.141347474        12.676359881
       195          195.000000         3.870569034       302.008296011     -1262.980724657     -1259.099568696        12.635412548
       196          196.000000         3.863618722       301.465985066     -1262.987049144     -1259.112933587        12.660837453
       197          197.000000         3.855861446       300.860709279     -1262.967950311     -1259.101679938        12.717671327
       198          198.000000         3.840962719       299.698208637     -1262.953272074     -1259.101987748        13.323020041
       199          199.000000         3.902966007       304.536129642     -1263.009596810     -1259.096397604        12.673464842
       200          200.000000         3.842672986       299.831655375     -1262.907658531     -1259.054833794        12.652915679
       201          201.000000         3.843980526       299.933678578     -1262.909647101     -1259.055596079        12.683863543
       202          202.000000         3.908528075       304.970120227     -1262.997299564     -1259.078783086        12.659803055
       203          203.000000         3.856118953       300.880801780     -1262.912787986     -1259.046754435        12.676074032
       204          204.000000         3.864162381       301.508405042     -1262.937556615     -1259.063550576        12.629134621
       205          205.000000         3.832330498       299.024663578     -1262.908816149     -1259.066711143        12.679167025
       206          206.000000         3.824611950       298.422409694     -1262.867076892     -1259.032762414        12.714525420
       207          207.000000         3.901663730       304.434517096     -1262.991532517     -1259.080242198        13.281489693
       208          208.000000         3.857038405       300.952543656     -1262.926621752     -1259.060025964        12.651017494
       209          209.000000         3.865712296       301.629340027     -1262.935915747     -1259.060712372        12.699143119
       210          210.000000         3.942861750       307.649068658     -1263.030329828     -1259.078039209        12.674821928
       211          211.000000         3.918645257       305.759532100     -1262.967937308     -1259.039909380        12.700867791
       212          212.000000         3.934533502       306.999241740     -1263.179081829     -1259.235196362        14.532640874
       213          213.000000         3.882823150       302.964446003     -1263.120694577     -1259.228533928        14.529569313
       214          214.000000         3.831277289       298.942485017     -1263.035763362     -1259.195155372        14.577896468
       215          215.000000         3.929779824       306.628327223     -1263.157266066     -1259.218161421        13.915250205
       216          216.000000         3.899168480       304.239820558     -1263.107305810     -1259.198804457        13.911949452
       217          217.000000         3.872266595       302.140751363     -1263.066739673     -1259.185120890        13.897862222
       218          218.000000         3.891031805       303.604941511     -1263.113026926     -1259.212616551        13.914146200
       219          219.000000         3.862365502       301.368200234     -1263.063276695     -1259.191497653        13.290154420
       220          220.000000         3.925713325       306.311031146     -1263.151011924     -1259.215843395        13.258158665
       221          221.000000         3.886618380       303.260575872     -1263.106644528     -1259.210514559        13.912410170
       222          222.000000         3.815124559       297.682138422     -1263.088694482     -1259.263994196        14.557078253
       223          223.000000         3.885813503       303.197773812     -1263.208119717     -1259.312667719        13.928160731
       224          224.000000         3.892108070       303.688919043     -1263.171750983     -1259.269933308        14.535150826
       225          225.000000         3.913452212       305.354335173     -1263.187081655     -1259.263837285        14.543167166
       226          226.000000         3.904096834       304.624364537     -1263.190778915     -1259.276792689        13.922307931
       227          227.000000         3.823154003       298.308650637     -1263.083810210     -1259.250659022        14.536647815