#     Step Nr.          Time[fs]        Kin.[a.u.]          Temp[K]            Pot.[a.u.]        Cons Qty[a.u.]        UsedTime[s]
         1            1.000000         3.813043317       297.519745734     -1262.989064253     -1258.109574764        48.370920386
         2            2.000000         3.774907028       294.544091372     -1262.943074296     -1258.102902395        10.772668142
         3            3.000000         3.774874181       294.541528391     -1262.958244748     -1258.119285706        10.199004190
         4            4.000000         3.775681601       294.604528841     -1262.967208320     -1258.128627460        10.234800677
         5            5.000000         3.766978735       293.925471606     -1262.946194915     -1258.117506735        10.261994948
         6            6.000000         3.776724558       294.685907434     -1262.963103133     -1258.125865466        10.203024128
         7            7.000000         3.754591523       292.958936549     -1262.938641903     -1258.124737190        10.219245570
         8            8.000000         3.753558555       292.878337273     -1262.941540962     -1258.129873884        10.234960893
         9            9.000000         3.767399896       293.958333462     -1262.965903131     -1258.141610095        10.219348771
        10           10.000000         3.743442026       292.088976448     -1262.932552881     -1258.133438537        10.253743761
        11           11.000000         3.753110567       292.843382188     -1262.943595425     -1258.136040898        10.246179665
        12           12.000000         3.768617871       294.053368216     -1262.954522237     -1258.132701391        10.241620168
        13           13.000000         3.788646790       295.616161601     -1262.965990649     -1258.125393107        10.229658123
        14           14.000000         3.833223047       299.094306396     -1263.015663876     -1258.131753820        10.228820721
        15           15.000000         3.814354291       297.622036833     -1262.980492039     -1258.116712822        10.225350251
        16           16.000000         3.804276743       296.835717548     -1262.960433100     -1258.107984712        10.795589809
        17           17.000000         3.826232625       298.548865815     -1262.982350031     -1258.109198313        10.268416659
        18           18.000000         3.823276751       298.318228250     -1262.962872913     -1258.093927044        10.210006642
        19           19.000000         3.841655669       299.752277307     -1262.985937815     -1258.099859193        10.250802756
        20           20.000000         3.830857756       298.909750181     -1262.963530999     -1258.089488932        10.223632094
        21           21.000000         3.826131292       298.540959140     -1262.944577526     -1258.076490561        10.614230052
        22           22.000000         3.877924763       302.582240333     -1262.998389257     -1258.079737110        10.813370035
        23           23.000000         3.871781792       302.102923646     -1262.981689028     -1258.070399977        10.238228492
        24           24.000000         3.847151474       300.181097616     -1262.949164495     -1258.063705949        10.257995558
        25           25.000000         3.820994385       298.140142445     -1262.924098011     -1258.065978371        10.833733259
        26           26.000000         3.790812547       295.785148853     -1262.879148295     -1258.052378476        10.833525834
        27           27.000000         3.834162585       299.167615591     -1262.934218401     -1258.065267414        10.254251035
        28           28.000000         3.842364320       299.807571135     -1262.948141235     -1258.072158184        10.224384753
        29           29.000000         3.824872252       298.442720161     -1262.924657526     -1258.067325860        10.792361326
        30           30.000000         3.842223034       299.796546981     -1262.952826270     -1258.079296157        10.807383080
        31           31.000000         3.829499473       298.803767685     -1262.932161548     -1258.072499256        10.243617835
        32           32.000000         3.841079500       299.707320662     -1262.950260374     -1258.080154572        10.227207561
        33           33.000000         3.835498184       299.271828185     -1262.949276659     -1258.085880763        10.277312689
        34           34.000000         3.803311958       296.760438484     -1262.906728329     -1258.076634304        10.260380128
        35           35.000000         3.837881220       299.457768928     -1262.954096511     -1258.090545892        10.266893992
        36           36.000000         3.860923335       301.255672485     -1262.985381200     -1258.099901235        10.806596863
        37           37.000000         3.864838359       301.561149466     -1262.979886787     -1258.091595778        10.820866028
        38           38.000000         3.880740537       302.801946283     -1263.006619950     -1258.103519367        10.283611118
        39           39.000000         3.854082281       300.721886627     -1262.966036691     -1258.090669577        10.243499135
        40           40.000000         3.863206873       301.433849781     -1262.980650012     -1258.097218704        10.258838454
        41           41.000000         3.864479016       301.533111099     -1262.991145915     -1258.107491275        10.273412405
        42           42.000000         3.828513603       298.726843346     -1262.945004962     -1258.098347479        10.822214236
        43           43.000000         3.854213915       300.732157650     -1262.977997744     -1258.106662742        10.813266189
        44           44.000000         3.859536475       301.147460200     -1262.979689533     -1258.104048292        10.263905376
        45           45.000000         3.854811004       300.778746609     -1262.967130995     -1258.097219793        10.288979297
        46           46.000000         3.851165459       300.494296208     -1262.974400433     -1258.109127209        10.274742527
        47           47.000000         3.782513477       295.137598569     -1262.887471440     -1258.091824845        10.249439025
        48           48.000000         3.777120799       294.716824866     -1262.885248596     -1258.095961847        10.255407477
        49           49.000000         3.784876738       295.321996368     -1262.890530178     -1258.094459211        10.270851491
        50           50.000000         3.761972736       293.534869357     -1262.850963143     -1258.078769710        10.252360330
        51           51.000000         3.788292623       295.588527121     -1262.881786969     -1258.084253891        10.278728151
        52           52.000000         3.774544701       294.515820090     -1262.860302000     -1258.077501960        10.254343088
        53           53.000000         3.780250052       294.960990644     -1262.855048405     -1258.067531533        10.284806610
        54           54.000000         3.815591716       297.718589218     -1262.904558941     -1258.082697354        10.246877859
        55           55.000000         3.774811783       294.536659670     -1262.847628061     -1258.067541324        10.256564352
        56           56.000000         3.776048288       294.633140268     -1262.846459648     -1258.066129929        10.256113853
        57           57.000000         3.790723570       295.778206205     -1262.862080564     -1258.068075396        10.233770618
        58           58.000000         3.793377363       295.985273324     -1262.853152033     -1258.057497116        10.238079047
        59           59.000000         3.837662330       299.440689616     -1262.910893812     -1258.071964247        10.233243083
        60           60.000000         3.813944965       297.590098434     -1262.878653212     -1258.064448064        10.247812815
        61           61.000000         3.799630547       296.473189589     -1262.866036506     -1258.067144673        10.238053089
        62           62.000000         3.819944391       298.058214783     -1262.902355188     -1258.084148269        10.267891966
        63           63.000000         3.786648141       295.460213393     -1262.861106022     -1258.077189670        10.275218076
        64           64.000000         3.795034187       296.114550078     -1262.877524967     -1258.086215118        10.231492533
        65           65.000000         3.794655212       296.084979896     -1262.885098301     -1258.095162084        10.250305681
        66           66.000000         3.782825420       295.161938477     -1262.868929310     -1258.091817133        10.252008734
        67           67.000000         3.822137023       298.229298906     -1262.925780056     -1258.110356094        10.907298290
        68           68.000000         3.779005721       294.863899428     -1262.874697744     -1258.103401899        10.826220498
        69           69.000000         3.744095313       292.139950374     -1262.835564881     -1258.100169755        10.243053423
        70           70.000000         3.760558086       293.424488634     -1262.872661623     -1258.121801043        10.235234402
        71           71.000000         3.733169979       291.287480988     -1262.832684361     -1258.110216174        10.264845276
        72           72.000000         3.764660271       293.744569198     -1262.880121324     -1258.127178872        10.234961213
        73           73.000000         3.772117987       294.326471285     -1262.890704875     -1258.131332995        10.817123750
        74           74.000000         3.761223592       293.476415987     -1262.861956178     -1258.114511828        10.231543723
        75           75.000000         3.827824302       298.673059332     -1262.941712570     -1258.128713363        10.242052902
        76           76.000000         3.820412323       298.094726024     -1262.917376966     -1258.112839357        10.287002999
        77           77.000000         3.800696466       296.556359819     -1262.887758545     -1258.103978286        10.834710436
        78           78.000000         3.801608049       296.627487842     -1262.885806139     -1258.102151915        10.801051365
        79           79.000000         3.783039835       295.178668623     -1262.844201293     -1258.080149993        10.863211645
        80           80.000000         3.847261171       300.189656957     -1262.918662211     -1258.091431129        10.227702621
        81           81.000000         3.862284390       301.361871355     -1262.927046547     -1258.085835702        10.272474159
        82           82.000000         3.829869879       298.832669304     -1262.876344511     -1258.068577435        10.252991486
        83           83.000000         3.864953264       301.570115163     -1262.915699210     -1258.073870170        10.240675057
        84           84.000000         3.861244386       301.280723120     -1262.895930978     -1258.058823916        10.272618064
        85           85.000000         3.873053477       302.202149260     -1262.906700280     -1258.058785263        10.825265670
        86           86.000000         3.871428131       302.075328587     -1262.908132945     -1258.062831176        10.807136458
        87           87.000000         3.808195705       297.141501788     -1262.819574446     -1258.038471973        10.247054677
        88           88.000000         3.847438889       300.203523700     -1262.863124768     -1258.043738786        10.227881597
        89           89.000000         3.878486948       302.626105873     -1262.889747495     -1258.040272704        10.257362182
        90           90.000000         3.857552545       300.992660395     -1262.854776318     -1258.027182191        10.246096989
        91           91.000000         3.855434810       300.827420205     -1262.867930393     -1258.043385766        10.257212800
        92           92.000000         3.795220849       296.129114726     -1262.792163950     -1258.028748400        10.821033568
        93           93.000000         3.809549679       297.247148183     -1262.802170386     -1258.025335241        10.802382658
        94           94.000000         3.846492302       300.129664497     -1262.851213807     -1258.038349470        10.244460194
        95           95.000000         3.794020240       296.035435026     -1262.784556493     -1258.025069385        10.264148717
        96           96.000000         3.806950805       297.044366207     -1262.816559723     -1258.045042731        10.274075959
        97           97.000000         3.808634190       297.175715431     -1262.826767945     -1258.054469535        10.281308096
        98           98.000000         3.807293274       297.071087944     -1262.827017964     -1258.056961521        10.841929766
        99           99.000000         3.841829425       299.765834962     -1262.867410180     -1258.063720921        10.815942028
       100          100.000000         3.771092344       294.246443605     -1262.786018667     -1258.053960633        10.802074081
       101          101.000000         3.750976683       292.676881983     -1262.768607895     -1258.057554172        10.831582875
       102          102.000000         3.786055643       295.413982596     -1262.816314871     -1258.071081588        10.842757498
       103          103.000000         3.767895226       293.996982541     -1262.786287331     -1258.060120584        10.264532703
       104          104.000000         3.794259957       296.054139348     -1262.831322299     -1258.079703783        10.246225698
       105          105.000000         3.774458387       294.509085303     -1262.805464295     -1258.074563966        10.246410590
       106          106.000000         3.772870210       294.385164871     -1262.797566432     -1258.069173456        10.238954426
       107          107.000000         3.833785061       299.138158572     -1262.867555137     -1258.079178077        10.215659620
       108          108.000000         3.797996896       296.345720894     -1262.807714772     -1258.056055970        10.796112806
       109          109.000000         3.794926948       296.106182542     -1262.810659315     -1258.062995981        10.226467860
       110          110.000000         3.819617758       298.032728630     -1262.829476203     -1258.058051111        10.276361755
       111          111.000000         3.813630647       297.565573179     -1262.806313782     -1258.041804604        10.801923409
       112          112.000000         3.866341059       301.678400413     -1262.883486731     -1258.067198061        10.279627604
       113          113.000000         3.846322939       300.116449652     -1262.848171170     -1258.052824751        10.789398977
       114          114.000000         3.833102886       299.084930620     -1262.824416434     -1258.043201601        10.824186976
       115          115.000000         3.900348737       304.331912292     -1262.903100823     -1258.055550269        10.794939625
       116          116.000000         3.877258403       302.530246381     -1262.870604913     -1258.047043072        10.791642014
       117          117.000000         3.876085974       302.438765391     -1262.861650092     -1258.040141301        10.840113879
       118          118.000000         3.880766026       302.803935146     -1262.858048047     -1258.032726057        10.817032623
       119          119.000000         3.851831485       300.546264108     -1262.806183985     -1258.010646772        10.239150392
       120          120.000000         3.911171863       305.176406671     -1262.878864067     -1258.024828938        10.239096687
       121          121.000000         3.883300930       303.001725700     -1262.836957555     -1258.011620731        10.253259278
       122          122.000000         3.833106856       299.085240406     -1262.769514916     -1257.995177033        10.231685652
       123          123.000000         3.874922149       302.347955808     -1262.829108530     -1258.013752431        10.273045789
       124          124.000000         3.867117609       301.738992204     -1262.814240519     -1258.007477901        10.244625761
       125          125.000000         3.904196646       304.632152523     -1262.859517779     -1258.016455646        10.844600423
       126          126.000000         3.913762371       305.378535846     -1262.863116000     -1258.011254360        10.245476158
       127          127.000000         3.874153849       302.288007837     -1262.809273238     -1257.997764305        10.322983440
       128          128.000000         3.941650981       307.554596189     -1262.889007625     -1258.010733422        10.799039346
       129          129.000000         3.943007949       307.660476137     -1262.887131790     -1258.008214713        10.860674100
       130          130.000000         3.905513845       304.734929366     -1262.843309909     -1258.002572920        10.222211921
       131          131.000000         3.904248154       304.636171539     -1262.855176921     -1258.016369383        10.273406550
       132          132.000000         3.859604531       301.152770373     -1262.795341805     -1258.001821517        10.259995370
       133          133.000000         3.894059315       303.841168572     -1262.848152726     -1258.020810242        10.258993442
       134          134.000000         3.895469428       303.951195228     -1262.857916342     -1258.029785060        10.259647222
       135          135.000000         3.834651155       299.205737152     -1262.783952461     -1258.017242555        10.244884413
       136          136.000000         3.875869181       302.421849720     -1262.851999154     -1258.044667503        10.256604307
       137          137.000000         3.872127401       302.129890488     -1262.849452040     -1258.046451564        10.231747595
       138          138.000000         3.858699821       301.082178722     -1262.833705846     -1258.044711258        10.219340356
       139          139.000000         3.859769739       301.165661088     -1262.855414218     -1258.065919519        10.248411703
       140          140.000000         3.780911889       295.012631720     -1262.746943481     -1258.036865431        10.803190005
       141          141.000000         3.810333032       297.308270694     -1262.788187794     -1258.049249522        10.802095565
       142          142.000000         3.844151142       299.946991195     -1262.823759729     -1258.051571444        10.262422272
       143          143.000000         3.800194848       296.517220160     -1262.762305115     -1258.034638339        10.235855997
       144          144.000000         3.835344399       299.259828818     -1262.808062176     -1258.045813159        10.787023079
       145          145.000000         3.833949601       299.150997086     -1262.787562690     -1258.027276953        10.267108310
       146          146.000000         3.853069268       300.642844442     -1262.809335092     -1258.030497047        10.233600896
       147          147.000000         3.901232740       304.400888257     -1262.871035814     -1258.044600155        10.832511874
       148          148.000000         3.851002257       300.481562103     -1262.787697381     -1258.012045104        10.288985910
       149          149.000000         3.878032498       302.590646570     -1262.806665947     -1258.004527646        10.800677775
       150          150.000000         3.911822331       305.227160638     -1262.835619475     -1258.000229178        10.849894521
       151          151.000000         3.898894776       304.218464328     -1262.802630572     -1257.980691070        10.252005013
       152          152.000000         3.937654832       307.242789289     -1262.855327944     -1257.995137497        10.815991097
       153          153.000000         3.899713605       304.282355003     -1262.798753488     -1257.976993175        10.838654380
       154          154.000000         3.907389467       304.881278270     -1262.801910627     -1257.972945982        10.253844351
       155          155.000000         3.956738553       308.731831854     -1262.865237897     -1257.987382204        10.228401017
       156          156.000000         3.897564558       304.114671585     -1262.780899798     -1257.962652676        10.235830316
       157          157.000000         3.904113168       304.625638992     -1262.795482770     -1257.971103604        10.277779148
       158          158.000000         3.904815656       304.680451921     -1262.796762243     -1257.972083086        10.228976816
       159          159.000000         3.877633232       302.559493107     -1262.754105911     -1257.956996452        10.264305238
       160          160.000000         3.924400549       306.208599379     -1262.822310896     -1257.978811474        10.221425923
       161          161.000000         3.877950638       302.584259307     -1262.761075836     -1257.964387736        10.830661155
       162          162.000000         3.863978019       301.494019902     -1262.746388371     -1257.964021911        10.815784484
       163          163.000000         3.914262197       305.417535738     -1262.821181328     -1257.988873809        10.205903803
       164          164.000000         3.880800714       302.806641760     -1262.772969185     -1257.974453156        10.256412496
       165          165.000000         3.903978431       304.615125865     -1262.809948997     -1257.988574260        10.216929136
       166          166.000000         3.896856572       304.059429709     -1262.806836664     -1257.992890492        10.825752106
       167          167.000000         3.874586663       302.321778930     -1262.769185466     -1257.977802994        10.241196140
       168          168.000000         3.937830402       307.256488430     -1262.857719030     -1258.003378347        10.235732167
       169          169.000000         3.886975321       303.288426844     -1262.794493333     -1257.991276280        10.296018191
       170          170.000000         3.852385161       300.589465719     -1262.756817695     -1257.988446167        10.233682367
       171          171.000000         3.889237949       303.464972585     -1262.811609534     -1258.006636037        10.236249469
       172          172.000000         3.875253906       302.373841800     -1262.784955582     -1257.994208785        10.258042917
       173          173.000000         3.919847212       305.853316866     -1262.850742611     -1258.015637278        10.229188306
       174          174.000000         3.888276315       303.389939308     -1262.819067976     -1258.015754338        10.215893270
       175          175.000000         3.831074299       298.926646389     -1262.743814395     -1257.997911975        10.238012363
       176          176.000000         3.895044542       303.918042671     -1262.828522094     -1258.018857561        10.808811657
       177          177.000000         3.877942883       302.583654211     -1262.795806087     -1258.003443590        10.825139996
       178          178.000000         3.864157007       301.507985729     -1262.779595689     -1258.001211035        10.211518042
       179          179.000000         3.860558004       301.227166871     -1262.775656957     -1258.001057886        10.275311618
       180          180.000000         3.814708281       297.649657598     -1262.704017982     -1257.975451158        10.223407369
       181          181.000000         3.899360575       304.254809173     -1262.803848673     -1257.990815002        10.275156845
       182          182.000000         3.915103140       305.483151837     -1262.815069905     -1257.986471459        10.210521447
       183          183.000000         3.855342824       300.820242838     -1262.732158047     -1257.963483765        10.280758716
       184          184.000000         3.887184008       303.304710050     -1262.780543040     -1257.980185772        10.213854769
       185          185.000000         3.870157606       301.976193530     -1262.747349258     -1257.964169012        10.276013157
       186          186.000000         3.904887865       304.686086181     -1262.783256161     -1257.965489634        10.212611746
       187          187.000000         3.944598305       307.784566524     -1262.832695420     -1257.975350916        10.223505908
       188          188.000000         3.891032423       303.604989748     -1262.752036941     -1257.948372211        10.259106959
       189          189.000000         3.943374403       307.689069323     -1262.822092705     -1257.966187346        10.248315119
       190          190.000000         3.969092327       309.695757873     -1262.847462657     -1257.965921841        10.215783771
       191          191.000000         3.942383848       307.611779464     -1262.809186574     -1257.954412287        10.279907393
       192          192.000000         3.956530971       308.715634873     -1262.844679624     -1257.975794907        10.227252578
       193          193.000000         3.904089067       304.623758472     -1262.782320397     -1257.965892926        10.270239154
       194          194.000000         3.936795847       307.175765387     -1262.822293039     -1257.973159768        10.206615560
       195          195.000000         3.984310273       310.883166166     -1262.887433186     -1257.990767153        10.851313858
       196          196.000000         3.933843613       306.945411878     -1262.818551717     -1257.972307968        10.262658690
       197          197.000000         3.964342919       309.325176505     -1262.868482431     -1257.991674832        10.253754271
       198          198.000000         3.947622639       308.020545829     -1262.853171349     -1257.992996217        10.208331765
       199          199.000000         3.912911836       305.312171271     -1262.815964496     -1257.990392611        10.203465744
       200          200.000000         3.925669929       306.307645038     -1262.854000393     -1258.015548310        10.246400310
       201          201.000000         3.847437858       300.203443256     -1262.755897069     -1257.995542239        10.348182877
       202          202.000000         3.875742795       302.411988249     -1262.797690824     -1258.008894172        10.242119920
       203          203.000000         3.934776698       307.018217518     -1262.876090703     -1258.028114922        10.244058019
       204          204.000000         3.879692903       302.720202706     -1262.804931689     -1258.011879361        10.210101068
       205          205.000000         3.893337840       303.784874090     -1262.837811989     -1258.030946726        10.237255501
       206          206.000000         3.874371146       302.304962824     -1262.811981244     -1258.023906125        10.801214464
       207          207.000000         3.869418987       301.918561429     -1262.794924788     -1258.011619814        10.805979579
       208          208.000000         3.924601941       306.224313324     -1262.865368968     -1258.026691610        10.240426428
       209          209.000000         3.855810023       300.856696924     -1262.766967666     -1257.996880447        10.262702860
       210          210.000000         3.852672581       300.611892206     -1262.762928234     -1257.995774958        10.268644959
       211          211.000000         3.909038125       305.009917854     -1262.827873089     -1258.004146536        10.231628290
       212          212.000000         3.899883234       304.295590551     -1262.796545071     -1257.981753310        10.830082498
       213          213.000000         3.931162887       306.736243281     -1262.840316186     -1257.994012041        10.271295886
       214          214.000000         3.879813585       302.729619176     -1262.770748679     -1257.975546543        10.245011541
       215          215.000000         3.858727298       301.084322682     -1262.733884193     -1257.959515760        10.228524324
       216          216.000000         3.942142002       307.592908979     -1262.830287190     -1257.972244150        10.242495234
       217          217.000000         3.919971314       305.863000099     -1262.790963546     -1257.954812299        10.232281408
       218          218.000000         3.917974216       305.707172876     -1262.789947383     -1257.955499546        10.828262092
       219          219.000000         3.924230364       306.195320320     -1262.800747172     -1257.959734385        10.238263854
       220          220.000000         3.899387440       304.256905319     -1262.757694047     -1257.941200920        10.280861950
       221          221.000000         3.955858199       308.663140550     -1262.836628627     -1257.963327046        10.792204312
       222          222.000000         3.903093330       304.546064282     -1262.765365751     -1257.944471456        10.279352003
       223          223.000000         3.830581674       298.888208409     -1262.681321918     -1257.932576248        10.217830896
       224          224.000000         3.873306213       302.221869429     -1262.747543121     -1257.955711300        10.263189315
       225          225.000000         3.873518373       302.238423597     -1262.736363472     -1257.943951231        10.225684539
       226          226.000000         3.910744260       305.143042225     -1262.783348846     -1257.953333926        10.265098801
       227          227.000000         3.900413822       304.336990723     -1262.779038982     -1257.958964211        10.225841091
       228          228.000000         3.831720104       298.977036503     -1262.692544145     -1257.940766989        10.255535521