    2699
 i =     0, time =     0.000, E =     -1262.9738949616
  C        11.1678889553       11.7475298561       12.4917857963
  O        10.1635551882       11.2057630059       12.9525592605
  O        12.3775204488       11.4606103446       12.6180767488
  N        10.7225670764       12.8741584279       11.1787208410
  H         9.6877204055       12.7644823688       11.0774412547
  H        10.9738729839       13.8818958971       11.3610041826
  H        11.0931061230       12.4878766660       10.3213395112
  N        11.7019951501       15.5943427610       11.3615628472
  H        12.2108276070       15.8438650673       12.2255001724
  H        12.4869905651       15.7248615579       10.6456500528
  H        11.0120915613       16.3031032836       11.1463990383
  O        31.7250987644       15.5798358685        2.2865905452
  H        32.2600492278       15.0179494595        1.6497741023
  H        31.1902179748       14.9787734224        2.7604838868
  O         0.9631539259       20.6301299500        2.6529247884
  H         0.3185206473       19.9842255735        2.3392452246
  H         1.1073151577       21.2108350174        1.8613438828
  O         2.8503794382        8.2804966990       -6.6204349121
  H         3.2165704400        9.0776683115       -6.2434182836
  H         3.6737005775        7.7847546220       -6.7494376594
  O        30.0858917212       25.5985164597       -5.4116416413
  H        29.4804002416       25.2731175962       -4.7083268246
  H        29.4934610407       25.8228960332       -6.1128132546
  O        26.0411237108       11.0691305779       10.0926975264
  H        25.4312702681       11.5408174502        9.4769182743
  H        26.7608432058       11.6792619075       10.1904327646
  O        21.5497100894       -0.9356277042        9.1468457826
  H        20.8359699296       -0.5866566162        8.6239412773
  H        21.1055510638       -1.8098957059        9.5038453192
  O        -1.2424214433       20.6219715339       -4.4998730555
  H        -0.4779674074       21.0593014064       -4.8011664562
  H        -1.1398448837       20.7734485046       -3.5251483281
  O         0.0129798787       11.7114684079        1.2231736284
  H        -0.5827496318       11.8128341364        0.4572313081
  H         0.6757859228       12.3813908518        0.9554929738
  O        28.8905211885        3.3800948604       -2.8594277179
  H        28.0995248500        3.8037273222       -3.2958061766
  H        28.6398423152        3.4755533371       -1.9288061130
  O        20.7392455692       25.7139926908       -0.7859046458
  H        20.7402436939       26.3112892456       -1.5583356007
  H        20.5001343639       26.3464063393       -0.0637743852
  O         3.7060022358       11.3636548834        3.2553865421
  H         3.0318886866       11.5914419710        3.9478862195
  H         4.0829403045       10.5942336308        3.8511971995
  O         7.3356528017       24.0307884203      -13.2887520559
  H         7.7951641454       23.2883950349      -13.7697069854
  H         6.4543262496       23.7856599916      -13.6498482784
  O        24.9167109052        4.3029972363       -1.9449144705
  H        24.1743049900        4.9113490247       -2.0222461891
  H        24.5004661151        3.5723326098       -1.3915557748
  O         4.8016681159        0.7272763564       -8.4819195873
  H         4.4626178489        1.1087134637       -9.3242366914
  H         3.9410024490        0.7009324031       -7.9964459485
  O        23.6015285181        2.2788181521       -0.4717674513
  H        24.0063780454        1.9332231055        0.3194261519
  H        22.8647752047        1.6683343820       -0.6176792638
  O        16.0097338365        2.4304925004      -10.3386284783
  H        16.3667168146        3.3056704894      -10.1240681325
  H        15.2563176375        2.4081502436       -9.6609744595
  O         2.3004129498       21.3477922146       -0.9046426402
  H         1.5323858702       20.7782607446       -1.1625846070
  H         1.7392736811       22.1132410075       -0.6463388347
  O        27.0886935099       -0.9180531004        0.2844212778
  H        26.5639467430       -0.6486471928       -0.5077288430
  H        27.9033591485       -0.3707809401        0.0955175720
  O        23.4159089592       28.5411111992       -1.8596019368
  H        23.0185413034       27.6918975170       -2.1620654231
  H        24.1415006557       28.6440132868       -2.5158152195
  O        19.6419065146       18.6005325022       -9.1007090986
  H        18.8195662648       18.1136260689       -9.3072003348
  H        19.3110187236       19.1037625416       -8.3188064691
  O        12.0299253119       13.9927209351      -12.9571467125
  H        12.4412129696       14.7351920481      -13.4498407585
  H        11.2104982641       14.4263144156      -12.6448795518
  O        17.1951792494       29.1082300499      -13.6434299883
  H        17.2221847169       29.1932220292      -12.6326805518
  H        18.1526675758       29.1780406396      -13.8592323720
  O        23.5610849254        5.0028921429       -4.8522957246
  H        23.2357445918        5.4765188404       -4.0706393129
  H        23.0439233755        4.1882318611       -4.8094365324
  O        21.0535854285        0.7731976637       -6.8750537057
  H        21.9922820722        1.0974264278       -6.7816677504
  H        20.8016559035        0.8753330655       -5.9009652377
  O        -4.6442763374        4.8769352311       -9.5137942670
  H        -4.5900433139        5.8176072035       -9.1760384594
  H        -4.7210146820        5.1319484495      -10.4994447704
  O        21.3236592866       14.3420484613       -0.6119342506
  H        21.6223285304       13.4278151845       -0.3195602378
  H        21.6145233926       14.8589116180        0.1930582567
  O        18.1924107812        8.3750008830        3.6328757985
  H        18.8761742766        9.0326566181        3.3350539333
  H        17.3943455264        8.7555745853        3.1707131279
  O        -0.5595885488       24.1797398558       -2.1808373934
  H        -0.3319680176       25.0626021425       -1.7792821307
  H         0.2800638664       24.0020044151       -2.6594886648
  O        26.2173843790        7.6827690186      -13.1185463714
  H        25.5557931570        8.3742398315      -12.8964931712
  H        25.7317250299        7.0752261887      -13.6651070381
  O        17.6697897971       -0.3380032053       -1.1142731245
  H        17.9203532461        0.2832647855       -1.8290211386
  H        16.8080700195       -0.6866491788       -1.4129479477
  O        23.2213901793       -1.1260530388        5.6639786102
  H        23.5702049370       -2.0650073367        5.5951270230
  H        22.7887453730       -1.0525112537        4.7636179722
  O         1.3848434068        9.0264282134       -9.0252038783
  H         1.0563727717        9.9336230642       -9.0148312035
  H         1.4900962677        8.8995585107       -8.0287671042
  O        30.2071502257       -1.9746314879       10.4122955896
  H        31.0765335430       -2.3900379368       10.6223925470
  H        29.7336730435       29.9664550997       11.2727248964
  O         9.2209699999       -0.1898605431        3.7562572732
  H         8.5796477136        0.5233515652        3.9332540667
  H         9.8392384964        0.3071177343        3.1319118616
  O         8.3180565211        3.4857406792       -0.6182362901
  H         8.8424309637        3.1724054509       -1.3447002048
  H         8.6680488967        2.9880854195        0.1448382854
  O        12.4058243714       -3.2883127164      -12.2719240527
  H        11.6706628546       -2.6628942585      -12.1880502536
  H        13.1173251444       -2.5761484018      -12.1125357207
  O        28.9334666586       18.4565030308        8.1928595100
  H        29.9024977027       18.6523446525        8.1566062285
  H        28.6133131899       19.3647930750        8.3839846870
  O        27.4355937623        9.6031413379       -0.2595502854
  H        27.1549478746        9.4462215369        0.6823324850
  H        28.4166303863        9.4095050139       -0.1766742160
  O        26.5661016249        4.1409274623       -4.1554977115
  H        26.2611504080        4.7104813592       -4.8867687187
  H        25.8355113046        4.2875984131       -3.5314929415
  O         4.3879850172        2.5164649711      -10.6964619605
  H         3.4528448046        2.4490919481      -11.0977755887
  H         4.8618521963        2.0325789772      -11.4107599469
  O        11.7352416144        4.5861104542        3.6231110333
  H        12.1966105617        5.0835552526        4.3484596756
  H        10.8269171243        4.9824321485        3.6847576708
  O         9.5471236066        0.0521277085       -0.6998967559
  H        10.1307462877        0.5022633291       -0.0173587408
  H        10.1936144476       -0.6689145461       -0.8495871381
  O         7.9063426015        1.8655844801      -12.3212902544
  H         7.1057884708        2.0014658379      -12.8833918201
  H         7.6751390857        0.8783477740      -12.1755249139
  O        28.3630366169        6.3548534372       -1.6892492583
  H        29.1406580396        6.7918755333       -1.2174885316
  H        28.8513874897        6.0877407468       -2.4690694720
  O        15.7129779931       13.1571569184        2.9427895592
  H        15.0600439635       12.8498341591        2.2071926297
  H        15.8162555215       14.1222771913        2.7229861569
  O         6.4136962846       12.1164237725      -10.0580296735
  H         6.6560396187       12.5021092329      -10.8996091604
  H         6.1077035858       11.2600337515      -10.3008847843
  O         8.7928263218       13.1641686921       -9.4308696633
  H         8.0276763489       12.6064320390       -9.6620908817
  H         9.2871619023       12.5826824471       -8.8075180565
  O        30.1291620389        5.7947870472        7.1379309246
  H        29.7611131601        4.8941870198        7.1405928770
  H        30.9666955692        5.5983602460        6.6144164389
  O        22.0700612111       12.8705037845        7.3192940074
  H        22.8360209655       13.3864646782        6.8919790017
  H        22.5254123540       12.6024612539        8.1064786327
  O        13.8351729880       -0.3928044802       -8.1613529666
  H        14.4936972205       -0.4739551481       -8.9028765547
  H        13.4954005161        0.5290920255       -8.3449326533
  O        19.6401871111       17.2087694784       -0.0919561039
  H        18.8537935871       17.5593005735        0.3846702023
  H        19.3235193523       16.6198490548       -0.7445173764
  O         9.6761047035       11.0652952190        9.1590419412
  H        10.1900289507       10.3736351132        9.6581674088
  H         9.6949777288       10.7453903150        8.2230914533
  O         8.1736301808       20.4838760377        5.8474338950
  H         7.5158314042       20.7412867442        5.1925019601
  H         8.2241901174       21.3418673357        6.3452342715
  O         9.0896558192       24.6706671815       -4.6012645500
  H         8.9747094555       24.5173299169       -5.5681846063
  H        10.0521598743       24.3716898794       -4.5305605066
  O        10.7801021221       -0.1009059785      -10.0686335123
  H        10.3093546310       -0.6405787498      -10.7402235836
  H        11.6898497249       -0.3235468643      -10.2646564259
  O        15.4038498211       20.3137481971        3.5245450458
  H        15.0638495635       19.4676371527        3.7369309403
  H        16.2375570177       20.3809734626        4.0150647280
  O         5.7280532993       -0.3760321036        8.2334736653
  H         5.2823064254        0.5321987697        8.3104377699
  H         5.1235097256       -0.8098687417        7.6094766806
  O        18.8254437654        0.7620619056      -13.8375809839
  H        19.7999786885        1.0486896773      -13.6472470543
  H        18.6783176949        1.3309104486      -14.6061863333
  O        30.6356697794       22.6132642513      -11.0719401996
  H        31.2330857273       22.5769566167      -11.8721817834
  H        30.6380031762       21.6944667811      -10.7995958713
  O         9.0498128456       -2.2140249619        5.9143552804
  H         9.8833878100       29.5237870465        6.1948741931
  H         9.2576225304       -1.5468384248        5.1878573002
  O         4.7950946758       17.9684810486       -2.6282147799
  H         3.9820310450       17.5686399516       -2.9605290630
  H         4.6213866802       18.9295428680       -2.7844931206
  O        25.6718785411       19.4201106040        7.8621630706
  H        25.8065190244       19.8769106572        8.6821885306
  H        24.7184230630       19.2233648279        7.9146504428
  O        11.2575593524        7.7108834163        1.0155821362
  H        11.2121618832        7.1896042947        0.2073648115
  H        10.3099237199        7.9928678692        1.1372294229
  O        29.3641838638        6.7391553320       11.5446285770
  H        28.7832235442        5.9396394056       11.4247344602
  H        28.7494565525        7.4445783247       11.5805954524
  O         6.7937722368       -3.5470256602       -1.8688600804
  H         7.0700764843       -4.3974788027       -2.2112655528
  H         6.6632029218       -3.7823742218       -0.9039136959
  O        18.0416141018       21.1838406649        4.6303479937
  H        19.0158575630       21.1605463512        4.7760293098
  H        17.9764506862       22.0620477624        4.1794446148
  O        26.8977658045       26.3536653410        2.4258541425
  H        27.1721881769       26.5664761795        3.3544606911
  H        26.9149031651       27.2412785853        2.0301629223
  O        21.8424046809        9.9945268468       -1.1509395850
  H        22.3344526611        9.1355815999       -1.0023156064
  H        20.9403004314        9.5542176915       -1.1059717069
  O        15.6862537594        0.5554938737       12.2519362334
  H        15.4472654682        1.3044653822       12.7940528147
  H        15.0950208055        0.6524423130       11.4910194260
  O         7.8215664522       27.1235584243       13.0632586719
  H         7.9063591263       28.0137059754       13.4572120771
  H         8.6754603172       27.0636948438       12.5555258629
  O         1.1674388746        1.3033042847        0.3882553595
  H         1.6502385483        1.2063331434       -0.4735296403
  H         0.7473732751        0.4231715138        0.4169633005
  O         9.3714857638       10.8462104570      -12.9562480034
  H        10.3045661320       11.1658817722      -12.8872275214
  H         9.5379766604        9.9864940446      -13.3905797251
  O         4.9071531854       -2.1400188254       -6.3539514507
  H         5.1574893310       -1.2618784940       -6.5358387668
  H         5.2598279651       -2.2034316855       -5.4446923089
  O        27.1637216687       13.2076971815      -14.1476993996
  H        27.1265797982       12.2855048101      -13.8146351953
  H        26.2811167802       13.5145358095      -13.9059527693
  O        17.3420316600       15.7930061158        3.7097084791
  H        17.5450971770       16.5884663381        3.1703697413
  H        18.1705608225       15.5384254989        4.1453868565
  O        15.2224425710        9.4652534969       -0.7273677603
  H        14.8762772360       10.2579853739       -1.1954827140
  H        14.6772917237        9.6053032656        0.1525391688
  O         9.1210316236       15.7143721504       -8.0463274883
  H         8.2914111553       16.1988071625       -8.1844417978
  H         9.0351500225       15.0349695520       -8.7379037087
  O        21.4408105476       -1.5000087270       -2.0385080506
  H        22.0070087943       -2.2373626569       -2.3279612133
  H        20.8035202476       -2.0224982322       -1.4887113583
  O        24.6781582413        5.4299590850      -13.9517183542
  H        24.0698653449        5.8324001042      -13.3159969262
  H        24.1789249518        4.7824517166      -14.3884886353
  O        11.8598976468       19.9722516752        1.9188291650
  H        12.2759211722       19.8861953754        2.8096487459
  H        10.9873864904       20.4318279550        2.1313889346
  O        25.3078899909       -0.7930302609       -7.1961282148
  H        25.8567638710       -0.3563907242       -7.9042163503
  H        25.3028593496       -1.7060731281       -7.5617121662
  O        11.6942850046       16.3750966136      -10.2287603063
  H        11.1084925519       15.6168522615      -10.3023566754
  H        11.2611137341       16.9982997757      -10.7804296402
  O        22.2533836628       11.6592275187       11.8479068761
  H        22.7419515587       11.0228975295       11.2748810616
  H        21.5587468618       11.9861078241       11.2678732633
  O        17.5237313357       16.3756729820        6.5798585192
  H        16.8857998739       16.8826590663        7.1046395089
  H        17.0213298564       15.6041755807        6.3157412770
  O        10.9013120210        2.5081931944        6.1402875088
  H        10.1307179362        2.5361518255        6.7483471092
  H        10.3980401917        2.5734922550        5.3052964338
  O        23.2695155686       15.9701263017        8.4331006236
  H        23.8348994255       15.3014504973        8.0152727729
  H        23.8243610848       16.3276601664        9.1419936342
  O        28.8592689870       23.4869348533       10.8325362978
  H        29.4155141565       24.2639275758       10.5586247933
  H        28.0617664160       23.6256338093       10.3250480893
  O        11.1001492977        6.3522710137       -1.3123787711
  H        10.1349419613        6.2439884185       -1.4456532864
  H        11.4360270884        6.1729849622       -2.1922081051
  O         3.3804048125       -0.5576114578        3.2805497064
  H         3.3957625609        0.3176462534        2.9244661859
  H         2.4440360197       -0.6462187142        3.5251326639
  O         2.1510952867        2.1911510613        2.7152542613
  H         1.2188591581        2.4599234665        2.8261656523
  H         2.1112935316        1.9597794063        1.7282556522
  O         8.0991648164       -1.8601969634        1.4317737848
  H         7.2082779242       -1.4865568375        1.5927781647
  H         8.7119387322       -1.1281336182        1.4126068653
  O        21.3353421417       18.5936437195       10.0756678974
  H        22.0787368138       18.8168956127        9.4025039754
  H        21.3288693365       19.4264750811       10.5729708415
  O        20.3862693659       26.9643996002      -11.9001433458
  H        20.0985481101       27.3130383543      -12.7416570795
  H        20.2452252717       27.7257069096      -11.3192058703
  O        13.6168468116        2.5319075329       -9.1983641306
  H        13.1555835416        2.7161466293      -10.0013973652
  H        12.9289461134        2.8135465429       -8.5551269806
  O        19.8270697980       27.8652401707        0.9214618221
  H        19.4323483829       -3.5692927550        1.6372723080
  H        19.5867988148       28.3678891772        0.1490266874
  O        14.6946910450       21.0879751356       -2.1575964988
  H        14.4762964074       20.7196712237       -1.2540904801
  H        15.6672099246       20.9508895476       -2.2263467269
  O        11.0705441605        3.1791769664       12.0134396105
  H        11.9820312426        2.9974695803       11.6822909723
  H        10.6573643229        2.3121075660       11.9674167376
  O        24.4043928306       -3.5903048245        5.9212835174
  H        23.5679155566       -3.6377675093        6.4446474642
  H        24.6094466132       27.4135391974        5.9153852104
  O         5.2923261277       13.7041881468        2.9273544376
  H         4.6590336279       12.9692201998        2.8892499458
  H         5.2020817211       14.0487100248        3.8197916898
  O         5.6731116248        2.2926920804        0.1634923095
  H         5.2835308719        1.5317434469       -0.3127246637
  H         6.1489550460        2.7585829422       -0.5667458926
  O        14.3791822730        9.9063204715        3.8690437495
  H        14.6057534999        9.7856885950        4.7996781199
  H        13.4398952535        9.6880161654        3.6859884734
  O        16.2585122820        7.4263878373       -8.9132494502
  H        16.5509116688        7.5665099466       -7.9799079086
  H        15.4642091847        7.9888254114       -9.0107397214
  O        -0.1813257147       15.8608257371      -12.3786780996
  H         0.6153657839       15.5857552088      -11.8920603630
  H        -0.5255710367       14.9904277346      -12.7131344344
  O        21.7597940277        4.4389880953        1.8146295791
  H        21.4281558583        3.8263585168        1.0537581073
  H        22.3949263750        4.9683566324        1.2510692739
  O         7.1200217906       -0.7776460075       -1.5637972512
  H         7.9312744800       -0.5900527225       -1.1101490231
  H         7.1344023873       -1.7558338670       -1.4703589661
  O        19.5739911843        3.8455040322       10.8218672728
  H        19.8448500411        4.2183840014       11.6534655576
  H        19.0289010165        4.4995947987       10.4774376466
  O         6.8702472908       21.2213352114        3.4636859745
  H         6.3044481064       20.5919821676        2.9033181798
  H         6.1010978443       21.8209036368        3.6813728577
  O         8.8307876496       22.2997675222       11.4708874023
  H         9.5155538211       21.6723538264       11.8411096133
  H         8.1220136659       22.1752448888       12.1179662332
  O        17.5742074605        1.5090630540       -6.0670963622
  H        16.6520251481        1.7133557637       -5.9032339475
  H        17.6717286309        2.2672892024       -6.7217976677
  O        11.0081609368       29.3900494727       -1.2232366672
  H        11.0389041277       -2.3446694497       -2.1660913870
  H        10.5682020774       -3.4257171454       -1.2546791296
  O         1.7724074795       19.9213192151      -12.7407451443
  H         1.2874701241       19.2672394827      -13.3153948600
  H         1.0760690481       20.1318999992      -12.0540463798
  O         1.1270947770       -2.9562519644        2.0645439736
  H         0.6364073073       -3.7562079431        1.7550611912
  H         2.0300691029       -3.2887811870        1.8498840196
  O        10.1922652727        8.3392986031      -13.3879156242
  H        10.6555140577        7.8925721623      -12.6623891653
  H        10.1384970126        7.6801288555      -14.0874661222
  O        21.3966495791        0.9132876686       -0.5404836317
  H        20.8850239255        0.5868051317        0.2108271397
  H        21.4711546604        0.0787453983       -1.0956986954
  O        14.1257922287        7.5585295076       -2.3743947470
  H        14.4498657751        7.9286294679       -3.2724452443
  H        14.5720709273        8.1379278807       -1.7525939992
  O        14.2763538821        2.7611023899       10.9563562864
  H        14.6281012365        3.6545811117       10.8422466452
  H        14.3209269912        2.2592026710       10.1281077299
  O        26.7375060172       -2.8475362502        4.5760740908
  H        26.5869073652       28.9702294724        3.6409067104
  H        25.8674764904       -3.0556513094        4.9444547606
  O         3.7324349561        4.6227834049       -0.5907868959
  H         3.2958092471        3.8027276312       -0.8153154791
  H         3.7059079656        4.5658738137        0.3769013874
  O        24.8000894205       27.2975004614       -5.3990263358
  H        24.1051298037       26.8913708290       -4.8353085113
  H        25.2029047807       27.8308757793       -4.6372188922
  O         0.4740156911       -5.1522394223       -1.4598032000
  H         0.4120401505       -4.8913539885       -2.3844372778
  H         1.4307523966       -5.1561171674       -1.3341532427
  O         9.0928815106        5.5823159455        3.6412317313
  H         8.3588084649        6.1506609808        3.3491953332
  H         9.0995027429        5.9053208499        4.5678333694
  O        27.5752163283        5.7413672243        2.5348776153
  H        27.0831884952        5.3015565589        1.8002799871
  H        27.8839541984        6.5212216940        2.1487956743
  O        21.4839947907       10.7704256455        5.3462753624
  H        21.0219814545       10.2022376365        6.0019053762
  H        21.6706468204       11.5650086018        5.8576940251
  O         1.3848457719       13.8982444706        0.3065703404
  H         2.3078222260       14.1745411792        0.5327214359
  H         1.2307634716       14.4219820532       -0.5129697564
  O         7.3444975476       15.2854554796        6.0921035064
  H         7.3016187668       16.2258120571        5.8415879996
  H         6.3739579435       15.0408116576        5.8508886402
  O         6.5148895395       26.2292389644       -6.8520976827
  H         6.9671255280       27.0031132548       -6.4186146630
  H         7.3268954395       25.7463014233       -7.0855109928
  O        30.2600760110       26.0823295394      -10.1885593801
  H        30.4464177628       25.2204986820       -9.7771142523
  H        -2.6522765220       26.2982593609       -9.9279086161
  O        -0.2768995270       27.2501113229       -4.1709287473
  H        -0.7220610116       28.0664675343       -4.5566325610
  H        -0.7711084262       26.5619098174       -4.7500451040
  O        -2.5810103282        4.0859794918        4.2703253052
  H        -2.6584686285        4.7340671927        3.6115841054
  H        -3.5030231897        3.7593085115        4.4080721972
  O        15.1908873697       -1.6317177280       -1.3675485996
  H        14.6304413489       -1.6846248175       -0.5345138273
  H        14.7020036108       -2.1597611126       -1.9569973472
  O        13.8241172981       24.4313080750      -10.5143600987
  H        14.6633561184       24.8466603548      -10.7435931974
  H        13.1767747630       25.0889428068      -10.9756227999
  O        11.8770492836        8.5008472185        3.6414528880
  H        11.6824594044        7.9425218602        2.8406954524
  H        11.1245433686        9.1264841112        3.8110006666
  O         0.5120577383       26.3706315632       10.3958334531
  H        -0.3331340652       25.9444892580       10.0914547155
  H         1.0332943873       25.6152511651       10.6147725297
  O         8.3660851650       22.7960997149        7.2743385604
  H         8.2923947849       23.5072141876        6.5963684918
  H         8.8672034028       23.2610965152        7.9960749382
  O        25.8991957981        1.7877952636      -11.5041602432
  H        26.3767972619        2.2793937968      -12.2360633877
  H        25.1832428908        2.4392169610      -11.3243570094
  O         2.0287307211       16.3327677297       -9.0604051594
  H         1.5429907439       15.6387727582       -8.5165417003
  H         2.0173937899       15.9139623954       -9.9198392967
  O        21.2572912095       10.5791472148       -4.1568544097
  H        21.5690167809       10.7113485130       -3.2320725307
  H        21.4658121638        9.6443538976       -4.2875257897
  O        17.6834982673        3.1492478428      -12.5640358048
  H        17.1305808931        2.7246269794      -11.9542767451
  H        18.2577843256        2.4301316031      -12.9013767457
  O        26.2440646570       -0.7734821776       -4.3723370282
  H        25.8497936799       -0.8252138751       -5.2917690631
  H        26.8936655921       -0.0303378118       -4.6173150644
  O        15.6490705389        5.5484692715       11.2325004115
  H        14.7739591999        5.9508860361       11.4690552896
  H        15.9266751034        6.2367487230       10.5694130120
  O        20.1533733013       25.4175890004       -9.7458120203
  H        20.3064198162       25.7873649460      -10.6499691075
  H        20.9061615728       25.7350256841       -9.2400194798
  O        16.1324648727       21.0920714690      -10.6067197515
  H        15.4000441395       21.0580054416      -11.1876678551
  H        16.3531311284       20.1953697589      -10.3770498992
  O        16.9173436760        8.2500067810        9.5616633733
  H        17.2809802540        8.6620629961        8.6969886305
  H        17.4240804553        8.6847443439       10.3186689063
  O        30.5868847293       14.6114498949       -0.9186441022
  H        30.5802886415       13.6875821831       -0.7037359419
  H        29.6501069163       14.8305581386       -0.6559985466
  O         9.4838354305        0.2403026335       -7.4632735307
  H         9.8647976028        0.3956346431       -8.3655789599
  H        10.0540473271       -0.5575486587       -7.2228067569
  O        -1.0374941809       18.3863555231        2.0247246945
  H        -0.8125869434       17.4824593282        2.3418045687
  H        -1.4737557200       18.7217425718        2.8678565499
  O        13.2587227722        2.8172458966        2.3170915653
  H        12.6609124878        3.2597672177        2.9915804526
  H        13.1256735160        3.4039164757        1.5753033264
  O         7.4556747309       15.1247317991       -3.4895364833
  H         7.5846391087       14.1758237460       -3.5279339547
  H         6.5049174069       15.1861352630       -3.8084826650
  O        20.2553393642       20.5070628437        7.8901751516
  H        20.0545967087       21.4763398727        8.0600464518
  H        19.7141078599       20.1056451703        8.5800357146
  O        10.7181382984       11.5269151509       -8.2989140501
  H        11.0693565118       10.9969379558       -9.0034101778