#     Step Nr.          Time[fs]        Kin.[a.u.]          Temp[K]            Pot.[a.u.]   
         0            0.000000         3.844830508       300.000000000     -1262.432263753  
         1            1.000000         3.419647231       266.824289667     -1261.853510347  
         2            2.000000         3.362406072       262.357942547     -1261.778482901  
         3            3.000000         3.608003621       281.521144781     -1261.996874198  
         4            4.000000         3.630125282       283.247228274     -1261.829750822  
         5            5.000000         4.064153471       317.113079127     -1262.253822769  
         6            6.000000         3.992387947       311.513441604     -1261.940080846  
         7            7.000000         4.132117502       322.416098182     -1261.845325192  
         8            8.000000         4.812761945       375.524637674     -1262.482313184  
         9            9.000000         4.752871825       370.851600467     -1262.112234577  
        10           10.000000         4.833382331       377.133581355     -1262.051556317  
        11           11.000000         4.932463382       384.864563291     -1262.002138474  
        12           12.000000         4.976254373       388.281436275     -1261.766465881  
        13           13.000000         5.634707160       439.658430823     -1262.465094090  
        14           14.000000         5.577712393       435.211308896     -1262.234835644  
        15           15.000000         5.399283165       421.289038885     -1261.927931373  
        16           16.000000         5.698153386       444.608939712     -1262.311835364  
        17           17.000000         5.524644266       431.070570239     -1262.029848799  
        18           18.000000         5.589579110       436.137231379     -1262.199117596  
        19           19.000000         5.379544799       419.748916434     -1262.067863866  
        20           20.000000         4.972972520       388.025363602     -1261.631253000  
        21           21.000000         5.389609605       420.534241530     -1262.339716551  
        22           22.000000         5.287160871       412.540489857     -1262.341366437  
        23           23.000000         4.947989108       386.075986724     -1262.127141357  
        24           24.000000         4.831330059       376.973449069     -1262.323650404  
        25           25.000000         4.390258604       342.558034344     -1261.911046272  
        26           26.000000         4.526866121       353.217088067     -1262.293119111  
        27           27.000000         4.398759360       343.221321505     -1262.327005832  
        28           28.000000         3.874471457       302.312789746     -1261.824606454  
        29           29.000000         4.090288216       319.152290889     -1262.267714241  
        30           30.000000         4.052718978       316.220881740     -1262.255520817  
        31           31.000000         4.013196239       313.137047056     -1262.259933148  
        32           32.000000         4.002392923       312.294098314     -1262.348145590  
        33           33.000000         3.519995608       274.654157123     -1261.683081880  
        34           34.000000         3.817591653       297.874638025     -1262.055338530  
        35           35.000000         4.085020516       318.741268852     -1262.302579949  
        36           36.000000         3.909595477       305.053406291     -1261.926889710  
        37           37.000000         4.165945302       325.055574762     -1262.186016788  
        38           38.000000         4.139677191       323.005956891     -1261.922246964  
        39           39.000000         4.404471043       343.666986132     -1262.064734309  
        40           40.000000         4.746843391       370.381220799     -1262.366171270  
        41           41.000000         4.393451025       342.807128876     -1261.706573406  
        42           42.000000         4.648214124       362.685490085     -1261.889394868  
        43           43.000000         4.993030568       389.590429840     -1262.136613692  
        44           44.000000         5.078597275       396.266930188     -1262.032014522  
        45           45.000000         5.382537197       419.982403776     -1262.343333848  
        46           46.000000         5.097362038       397.731085440     -1261.848837126  
        47           47.000000         5.182290309       404.357770608     -1261.891652611  
        48           48.000000         5.547102641       432.822926476     -1262.354850402  
        49           49.000000         5.208898606       406.433932084     -1261.863815931  
        50           50.000000         5.237101676       408.634528729     -1261.992376677  
        51           51.000000         5.200315710       405.764235777     -1262.007100110  
        52           52.000000         5.123924855       399.803698298     -1261.946191952  
        53           53.000000         5.379465010       419.742690747     -1262.436641858  
        54           54.000000         4.873409035       380.256738841     -1261.924585766  
        55           55.000000         4.604766788       359.295431504     -1261.760581033  
        56           56.000000         4.753509077       370.901323219     -1262.141087461  
        57           57.000000         4.474123891       349.101778202     -1261.911745215  
        58           58.000000         4.501102307       351.206818930     -1262.149798511  
        59           59.000000         4.244219289       331.163047113     -1261.984461047  
        60           60.000000         4.009306216       312.833520770     -1261.763091148  
        61           61.000000         4.363933956       340.504005063     -1262.350954404  
        62           62.000000         4.080733282       318.406749495     -1262.037474762  
        63           63.000000         3.874920984       302.347864932     -1261.858323633  
        64           64.000000         3.948067535       308.055259645     -1262.027853459  
        65           65.000000         3.836041347       299.314209432     -1261.833887983  
        66           66.000000         4.219795104       329.257305002     -1262.317493697  
        67           67.000000         4.146444151       323.533961373     -1262.154884816  
        68           68.000000         3.905265944       304.715586479     -1261.761940519  
        69           69.000000         4.288211018       334.595582983     -1262.216915044  
        70           70.000000         4.272581933       333.376094734     -1262.038205579  
        71           71.000000         4.365331915       340.613083346     -1262.040595198  
        72           72.000000         4.452870189       347.443418822     -1262.041289993  
        73           73.000000         4.297676558       335.334149185     -1261.604245697  
        74           74.000000         4.827625231       376.684372980     -1262.160048479  
        75           75.000000         4.966645081       387.531653503     -1262.187356138  
        76           76.000000         4.770113716       372.196930836     -1261.799007345  
        77           77.000000         4.977961957       388.414673665     -1262.037565068  
        78           78.000000         4.895252484       381.961114289     -1261.778849408  
        79           79.000000         5.126073402       399.971342633     -1262.042257120  
        80           80.000000         5.221508232       407.417821443     -1262.194624389  
        81           81.000000         4.849484431       378.389977424     -1261.680474268  
        82           82.000000         5.142973384       401.289994908     -1262.108456883  
        83           83.000000         5.237661324       408.678196271     -1262.255658293  
        84           84.000000         5.092701122       397.367408829     -1262.118229557  
        85           85.000000         5.105681335       398.380213948     -1262.291957243  
        86           86.000000         4.698045642       366.573686330     -1261.822198957  
        87           87.000000         4.799340740       374.477423343     -1262.089966178  
        88           88.000000         4.925164694       384.295069716     -1262.390604445  
        89           89.000000         4.496928181       350.881125018     -1261.946874173  
        90           90.000000         4.503529408       351.396197969     -1262.143715018  
        91           91.000000         4.384840721       342.135293955     -1262.099990662  
        92           92.000000         4.343481449       338.908160397     -1262.109310236  
        93           93.000000         4.472896423       349.006002760     -1262.403072189  
        94           94.000000         3.995510095       311.757052958     -1261.855487509  
        95           95.000000         4.010239049       312.906306830     -1261.934118869  
        96           96.000000         4.239037388       330.758719691     -1262.258832840  
        97           97.000000         4.067554252       317.378431399     -1261.993259900  
        98           98.000000         4.169162811       325.306626807     -1262.178028585  
        99           99.000000         3.990580543       311.372415623     -1261.908883861  
       100          100.000000         4.052120439       316.174179583     -1261.891087213  
       101          101.000000         4.445779447       346.890150635     -1262.342743676  
       102          102.000000         4.190886840       327.001684304     -1261.907906812  
       103          103.000000         4.222087148       329.436145923     -1261.871381904  
       104          104.000000         4.428784377       345.564078884     -1262.011342402  
       105          105.000000         4.475155605       349.182279566     -1261.915369935  
       106          106.000000         4.814741544       375.679099545     -1262.275880490  
       107          107.000000         4.617816782       360.313681376     -1261.928906703  
       108          108.000000         4.530330056       353.487368016     -1261.737133880  
       109          109.000000         4.911634026       383.239314332     -1262.171476316  
       110          110.000000         4.821434959       376.201365604     -1261.927594946  
       111          111.000000         4.862305279       379.390347768     -1261.979068003  
       112          112.000000         4.810601480       375.356063384     -1261.927194792  
       113          113.000000         4.669903990       364.377881944     -1261.700673099  
       114          114.000000         5.022367077       391.879465163     -1262.187939405  
       115          115.000000         4.843077745       377.890083932     -1261.984331552  
       116          116.000000         4.588309670       358.011334415     -1261.741747487  
       117          117.000000         4.698811094       366.633412109     -1261.985096503  
       118          118.000000         4.538999647       354.163828859     -1261.815807197  
       119          119.000000         4.656024227       363.294887834     -1262.062551471  
       120          120.000000         4.510782099       351.962102552     -1261.995930812  
       121          121.000000         4.167238406       325.156471557     -1261.644914710  
       122          122.000000         4.432996446       345.892733394     -1262.091148606  
       123          123.000000         4.365250793       340.606753661     -1262.060096141  
       124          124.000000         4.208205492       328.353004115     -1261.949085327  
       125          125.000000         4.185695588       326.596627293     -1262.079361972  
       126          126.000000         3.923238246       306.117908505     -1261.758330796  
       127          127.000000         4.179381265       326.103940576     -1262.112579541  
       128          128.000000         4.226523589       329.782307445     -1262.184421001  
       129          129.000000         3.922662595       306.072992248     -1261.785496461  
       130          130.000000         4.113892007       320.994020287     -1262.060753822  
       131          131.000000         4.139671559       323.005517420     -1262.046108540  
       132          132.000000         4.259115535       332.325354173     -1262.142953077  
       133          133.000000         4.383823101       342.055892324     -1262.294001829  
       134          134.000000         4.100236521       319.928525742     -1261.849173910  
       135          135.000000         4.345826506       339.091137815     -1262.102794187  
       136          136.000000         4.548934869       354.939042911     -1262.274127735  
       137          137.000000         4.436885981       346.196221499     -1262.032316824  
       138          138.000000         4.576289359       357.073427499     -1262.211347649  
       139          139.000000         4.468482738       348.661616853     -1261.979670030  
       140          140.000000         4.636041138       361.735670342     -1262.112475834  
       141          141.000000         4.872322196       380.171936240     -1262.386002220  
       142          142.000000         4.571996684       356.738483605     -1261.937792782  
       143          143.000000         4.658111631       363.457761361     -1262.054437998  
       144          144.000000         4.757247583       371.193027063     -1262.140487722  
       145          145.000000         4.715092733       367.903817017     -1262.048275036  
       146          146.000000         4.840666613       377.701950889     -1262.275349814  
       147          147.000000         4.527057234       353.232000030     -1261.900010367  
       148          148.000000         4.513060024       352.139841868     -1261.914895481  
       149          149.000000         4.741382758       369.955144795     -1262.275246235  
       150          150.000000         4.515174545       352.304831287     -1262.029714764  
       151          151.000000         4.494188438       350.667351554     -1262.118015876  
       152          152.000000         4.374332599       341.315378335     -1262.048232573  
       153          153.000000         4.302103591       335.679576668     -1262.000281683  
       154          154.000000         4.530325118       353.486982682     -1262.378560337  
       155          155.000000         4.235379781       330.473328129     -1262.050694675  
       156          156.000000         4.093458514       319.399659237     -1261.959136719  
       157          157.000000         4.215774873       328.943619015     -1262.175544899  
       158          158.000000         4.088955011       319.048265119     -1262.025288808  
       159          159.000000         4.197572778       327.523366978     -1262.227548408  
       160          160.000000         4.048469961       315.889344307     -1262.060487891  
       161          161.000000         3.909682032       305.060159884     -1261.871183584  
       162          162.000000         4.206722413       328.237284081     -1262.269250745  
       163          163.000000         4.116148717       321.170104217     -1262.104179000  
       164          164.000000         4.071994275       317.724872393     -1262.035750234  
       165          165.000000         4.127719382       322.072926758     -1262.074727281  
       166          166.000000         4.047832495       315.839604843     -1261.881940590  
       167          167.000000         4.344854821       339.015320328     -1262.223830639  
       168          168.000000         4.319998030       337.075823303     -1262.143773198  
       169          169.000000         4.162732213       324.804867542     -1261.877911544  
       170          170.000000         4.392724190       342.750416223     -1262.147005772  
       171          171.000000         4.384022661       342.071463324     -1262.023644033  
       172          172.000000         4.500341842       351.147482257     -1262.126984144  
       173          173.000000         4.550675195       355.074835006     -1262.162452872  
       174          174.000000         4.372163612       341.146139144     -1261.878839568  
       175          175.000000         4.638236866       361.906996088     -1262.220539367  
       176          176.000000         4.674646915       364.747957379     -1262.237391756  
       177          177.000000         4.540107058       354.250236622     -1262.050501928  
       178          178.000000         4.623613229       360.765959861     -1262.208747887  
       179          179.000000         4.486981922       350.105049775     -1262.027970369  
       180          180.000000         4.601482330       359.039155550     -1262.207665290  
       181          181.000000         4.631136879       361.353006480     -1262.290644129  
       182          182.000000         4.334658509       338.219734245     -1261.949483721  
       183          183.000000         4.430340512       345.685499206     -1262.160857182  
       184          184.000000         4.412145802       344.265823339     -1262.179021677  
       185          185.000000         4.319162797       337.010652698     -1262.114135299  
       186          186.000000         4.329869151       337.846035758     -1262.237112183  
       187          187.000000         4.042074814       315.390351204     -1261.934996281  
       188          188.000000         4.094484220       319.479691886     -1262.065767229  
       189          189.000000         4.194471083       327.281351466     -1262.249279913  
       190          190.000000         3.974267389       310.099551604     -1261.983855849  
       191          191.000000         3.996145964       311.806667852     -1262.062578682  
       192          192.000000         3.923309662       306.123480898     -1261.981441235  
       193          193.000000         3.966136918       309.465156576     -1262.037228782  
       194          194.000000         4.134977238       322.639234357     -1262.272090068  
       195          195.000000         3.899478287       304.263993867     -1261.959746538  
       196          196.000000         3.932690174       306.855412647     -1262.004192316  
       197          197.000000         4.084258702       318.681826889     -1262.158691975  
       198          198.000000         4.050320916       316.033768529     -1262.056965451  
       199          199.000000         4.193612074       327.214325696     -1262.239109895  
       200          200.000000         4.092291150       319.308573542     -1262.040268026  
       201          201.000000         4.112078275       320.852500517     -1261.998617303  
       202          202.000000         4.365946349       340.661025732     -1262.267401026  
       203          203.000000         4.258279527       332.260123093     -1262.061665073  
       204          204.000000         4.292856902       334.958086638     -1262.087217633  
       205          205.000000         4.349110472       339.347375340     -1262.150183578  
       206          206.000000         4.322405914       337.263702911     -1262.052071704  
       207          207.000000         4.528361603       353.333775857     -1262.307077564  
       208          208.000000         4.398799108       343.224422894     -1262.121144441  
       209          209.000000         4.309052614       336.221787001     -1262.005194591  
       210          210.000000         4.472081806       348.942440744     -1262.229577839  
       211          211.000000         4.390480731       342.575366167     -1262.065159386  
       212          212.000000         4.428241002       345.521681068     -1262.168678488  
       213          213.000000         4.363903046       340.501593250     -1262.138490743  
       214          214.000000         4.225664071       329.715241948     -1261.947451660  
       215          215.000000         4.409711320       344.075868415     -1262.233061397  
       216          216.000000         4.323125752       337.319869563     -1262.148707690  
       217          217.000000         4.201126381       327.800643347     -1262.026545356  
       218          218.000000         4.228862027       329.964768397     -1262.116237413  
       219          219.000000         4.101814667       320.051663481     -1261.970412349  
       220          220.000000         4.209934642       328.487924203     -1262.160964024  
       221          221.000000         4.178802879       326.058810905     -1262.152834414  
       222          222.000000         4.001739197       312.243090139     -1261.931796304  
       223          223.000000         4.151622135       323.937983145     -1262.159177722  
       224          224.000000         4.137226582       322.814743583     -1262.127349005  
       225          225.000000         4.112587668       320.892246794     -1262.110743387  
       226          226.000000         4.133483485       322.522681505     -1262.178892458  
       227          227.000000         3.979324560       310.494146747     -1261.937984899  
       228          228.000000         4.125016742       321.862048237     -1262.110252019  
       229          229.000000         4.182424385       326.341385628     -1262.166076498  
       230          230.000000         4.055621879       316.447385966     -1261.988811797  
       231          231.000000         4.150807705       323.874435760     -1262.119457593  
       232          232.000000         4.110859022       320.757366017     -1262.029120145  
       233          233.000000         4.165185702       324.996305541     -1262.082955005  
       234          234.000000         4.243211155       331.084385551     -1262.195080545  
       235          235.000000         4.081454677       318.463037715     -1261.951295442  
       236          236.000000         4.193946893       327.240450598     -1262.074495341  
       237          237.000000         4.259914621       332.387704367     -1262.101964274  
       238          238.000000         4.184712602       326.519927966     -1261.971346596  
       239          239.000000         4.259787184       332.377760887     -1262.078014179  
       240          240.000000         4.151467005       323.925878867     -1261.927154514  
       241          241.000000         4.181301321       326.253756480     -1261.956339032  
       242          242.000000         4.279844944       333.942804612     -1262.096392747  
       243          243.000000         4.121438099       321.582818033     -1261.910689026  
       244          244.000000         4.170885441       325.441038216     -1262.000012202  
       245          245.000000         4.197641443       327.528724630     -1262.033821236  
       246          246.000000         4.168255964       325.235868395     -1261.991208485  
       247          247.000000         4.258276273       332.259869260     -1262.141346036  
       248          248.000000         4.099841007       319.897665008     -1261.955722156  
       249          249.000000         4.087851850       318.962188967     -1261.977546684  
       250          250.000000         4.206650183       328.231648265     -1262.158187544  
       251          251.000000         4.120450761       321.505779186     -1262.058310940  
       252          252.000000         4.169790056       325.355568782     -1262.187525877  
       253          253.000000         4.130912461       322.322072623     -1262.175629949  
       254          254.000000         4.108981849       320.610896127     -1262.147340495  
       255          255.000000         4.272072031       333.336308736     -1262.388636695  
       256          256.000000         4.160821383       324.655771503     -1262.266765911  
       257          257.000000         4.111079594       320.774576563     -1262.227774677  
       258          258.000000         4.169197286       325.309316800     -1262.341381372  
       259          259.000000         4.117225888       321.254152454     -1262.244497055  
       260          260.000000         4.218700715       329.171913265     -1262.382639229  
       261          261.000000         4.163657082       324.877032173     -1262.318116866  
       262          262.000000         4.093601386       319.410807062     -1262.218720747  
       263          263.000000         4.230887763       330.122830160     -1262.379192950  
       264          264.000000         4.169203300       325.309786039     -1262.277496754  
       265          265.000000         4.159197002       324.529026139     -1262.261389301  
       266          266.000000         4.181934136       326.303133035     -1262.282015071  
       267          267.000000         4.115728708       321.137332286     -1262.163507907  
       268          268.000000         4.249223827       331.553535439     -1262.304344742  
       269          269.000000         4.219885217       329.264336175     -1262.251018892  
       270          270.000000         4.128737525       322.152369260     -1262.120894890  
       271          271.000000         4.219694431       329.249449783     -1262.229286749  
       272          272.000000         4.171295159       325.473007232     -1262.130151587  
       273          273.000000         4.197736708       327.536157873     -1262.174149960  
       274          274.000000         4.201851880       327.857251743     -1262.190543319  
       275          275.000000         4.096974026       319.673963574     -1262.044660822  
       276          276.000000         4.217012419       329.040180795     -1262.205406811  
       277          277.000000         4.217036548       329.042063542     -1262.206005994  
       278          278.000000         4.135420432       322.673815402     -1262.119704769  
       279          279.000000         4.163532257       324.867292406     -1262.194768764  
       280          280.000000         4.065127312       317.189064881     -1262.046720586  
       281          281.000000         4.115263124       321.101004171     -1262.140757168  
       282          282.000000         4.159022029       324.515373579     -1262.214022290  
       283          283.000000         4.045975058       315.694674934     -1262.077651756  
       284          284.000000         4.111350535       320.795717249     -1262.193957301  
       285          285.000000         4.109783722       320.673463779     -1262.213768793  
       286          286.000000         4.092543118       319.328233794     -1262.209391107  
       287          287.000000         4.127222679       322.034170575     -1262.289540229  
       288          288.000000         4.003277979       312.363156453     -1262.119300924  
       289          289.000000         4.046253442       315.716396317     -1262.177641978  
       290          290.000000         4.110542410       320.732661808     -1262.256135688  
       291          291.000000         4.043531870       315.504040618     -1262.169363889  
       292          292.000000         4.089810871       319.115045175     -1262.263180057  
       293          293.000000         4.030799567       314.510579205     -1262.226996143  
       294          294.000000         4.001615915       312.233470857     -1262.199015783  
       295          295.000000         4.057517622       316.595304754     -1262.306259655  
       296          296.000000         3.957115535       308.761246514     -1262.136888743  
       297          297.000000         3.987813830       311.156537689     -1262.190753405  
       298          298.000000         4.031810891       314.589489657     -1262.234936155  
       299          299.000000         3.993263561       311.581763016     -1262.174687490  
       300          300.000000         4.076128081       318.047420175     -1262.280980183  
       301          301.000000         4.037727581       315.051150322     -1262.210049375  
       302          302.000000         4.031166235       314.539189125     -1262.183251899  
       303          303.000000         4.109863992       320.679726928     -1262.287857599  
       304          304.000000         4.047149803       315.786336520     -1262.198703231  
       305          305.000000         4.094428781       319.475366093     -1262.247499684  
       306          306.000000         4.130930789       322.323502712     -1262.291495855  
       307          307.000000         4.099493158       319.870523461     -1262.251402907  
       308          308.000000         4.177159280       325.930566095     -1262.390637503  
       309          309.000000         4.117621560       321.285025492     -1262.260237674  
       310          310.000000         4.082479108       318.542970779     -1262.213669226  
       311          311.000000         4.133532465       322.526503276     -1262.302510746  
       312          312.000000         4.069802459       317.553851856     -1262.241385241  
       313          313.000000         4.115488710       321.118605974     -1262.324550777  
       314          314.000000         4.134342718       322.589724718     -1262.349267878  
       315          315.000000         4.085631659       318.788954430     -1262.298599182  
       316          316.000000         4.127813196       322.080246743     -1262.391313559  
       317          317.000000         4.039300994       315.173918742     -1262.294835215  
       318          318.000000         3.988907399       311.241865476     -1262.269152389  
       319          319.000000         4.023280880       313.923919753     -1262.343812549  
       320          320.000000         3.961924387       309.136466095     -1262.255776375  