#     Step Nr.          Time[fs]        Kin.[a.u.]          Temp[K]            Pot.[a.u.]        Cons Qty[a.u.]        UsedTime[s]
         0            0.000000         3.844830508       300.000000000     -1262.255154775     -1258.409849245         0.000000000
         1            1.000000         3.418504311       266.735111222     -1261.680672944     -1258.260895754        36.684571782
         2            2.000000         3.398662084       265.186884862     -1261.646662675     -1258.246045896        10.633905675
         3            3.000000         3.657434099       285.378049163     -1261.866581811     -1258.206563326        10.646308312
         4            4.000000         3.744850286       292.198858533     -1261.681949717     -1257.933894107        10.706002943
         5            5.000000         4.269068824       333.101977984     -1262.136441468     -1257.863503778        10.668944595
         6            6.000000         4.284342296       334.293718800     -1261.824652414     -1257.535653209        10.149448179
         7            7.000000         4.497144624       350.898013375     -1261.743340031     -1257.240622495        10.093477016
         8            8.000000         5.202226193       405.913304737     -1262.334114044     -1257.125119048        10.144637271
         9            9.000000         5.209708072       406.497092193     -1261.954589913     -1256.736489875        10.129057009
        10           10.000000         5.390103579       420.572784735     -1261.902611821     -1256.502079710        10.157784128
        11           11.000000         5.570427754       434.642911498     -1261.859036932     -1256.275634295        10.143300103
        12           12.000000         5.704113383       445.073979544     -1261.665728639     -1255.945518408        10.144682583
        13           13.000000         6.401581125       499.495188022     -1262.333499699     -1255.911857183        10.103875185
        14           14.000000         6.381165974       497.902258095     -1262.095243126     -1255.689028142        10.143923611
        15           15.000000         6.258239358       488.310681916     -1261.874283284     -1255.585250748        10.171949051
        16           16.000000         6.557028643       511.624267617     -1262.243919950     -1255.649473185        10.130743293
        17           17.000000         6.386501925       498.318605589     -1261.975218159     -1255.543767919        10.678708291
        18           18.000000         6.429512194       501.674561216     -1262.137171661     -1255.654468216        10.140245767
        19           19.000000         6.168246278       481.288805714     -1261.940362924     -1255.710098637        10.165887084
        20           20.000000         5.747463283       448.456435541     -1261.533830497     -1255.715429419        10.128144567
        21           21.000000         6.095984241       475.650426806     -1262.206561923     -1256.030340308        10.149861215
        22           22.000000         5.907698858       460.959112122     -1262.168145104     -1256.170354897        10.164243437
        23           23.000000         5.516052774       430.400203241     -1261.948542534     -1256.332712747        10.134515787
        24           24.000000         5.328252129       415.746711154     -1262.050875350     -1256.613512991        10.153483883
        25           25.000000         4.848671939       378.326581223     -1261.692851662     -1256.726300426        10.138330732
        26           26.000000         4.947976546       386.075006606     -1262.108299805     -1257.034134275        10.140684210
        27           27.000000         4.745948345       370.311383182     -1262.161583376     -1257.281391026        10.729987264
        28           28.000000         4.182439086       326.342532688     -1261.633048400     -1257.309173467        10.703199574
        29           29.000000         4.362517344       340.393471256     -1262.089178210     -1257.578676417        10.713946960
        30           30.000000         4.306344646       336.010492818     -1262.082956010     -1257.622303887        10.734488792
        31           31.000000         4.273444861       333.443426311     -1262.102522651     -1257.668833237        10.718853724
        32           32.000000         4.234677571       330.418536915     -1262.160170005     -1257.759676057        10.723699504
        33           33.000000         3.779078830       294.869603866     -1261.539906609     -1257.590060269        10.173426252
        34           34.000000         4.137918746       322.868750972     -1261.920157850     -1257.606926442        10.170765980
        35           35.000000         4.451311324       347.321785558     -1262.152008766     -1257.520736757        10.178644622
        36           36.000000         4.335243062       338.265345042     -1261.798412141     -1257.278658830        10.786662475
        37           37.000000         4.599349924       358.872770652     -1262.055670480     -1257.267379485        10.742503638
        38           38.000000         4.594212368       358.471903334     -1261.801012381     -1257.013433344        10.755247301
        39           39.000000         4.930373559       384.701500993     -1261.914699080     -1256.786477943        10.725684835
        40           40.000000         5.307587361       414.134304438     -1262.227611902     -1256.717374837        10.747818625
        41           41.000000         5.001655490       390.263405293     -1261.583308855     -1256.374097318        10.768905744
        42           42.000000         5.288003377       412.606227958     -1261.754316938     -1256.253818122        10.760123941
        43           43.000000         5.635491317       439.719616092     -1261.938940876     -1256.085593924        10.170528669
        44           44.000000         5.763173022       449.682216877     -1261.852546239     -1255.865707335        10.713749125
        45           45.000000         6.075833456       474.078124626     -1262.155257772     -1255.849441173        10.734631430
        46           46.000000         5.790645854       451.825835355     -1261.670934842     -1255.643633410        10.712374119
        47           47.000000         5.874529722       458.371029012     -1261.733898342     -1255.615866495        10.700816002
        48           48.000000         6.189135430       482.918720372     -1262.169760119     -1255.729728525        11.290583143
        49           49.000000         5.844445440       456.023647355     -1261.670271603     -1255.567191704        10.702626635
        50           50.000000         5.842081655       455.839208711     -1261.805708756     -1255.697192967        11.309542453
        51           51.000000         5.756436542       449.156590592     -1261.820503397     -1255.789635843        10.702828066
        52           52.000000         5.683108351       443.435023127     -1261.797642840     -1255.831992356        10.709336335
        53           53.000000         5.914256907       461.470816042     -1262.248367348     -1256.043135331        10.706250323
        54           54.000000         5.380588751       419.830372749     -1261.780958721     -1256.100962367        11.252468631
        55           55.000000         5.090590971       397.202760416     -1261.648108753     -1256.250202600        11.267800819
        56           56.000000         5.172255599       403.574793829     -1262.001883305     -1256.514550878        11.259253234
        57           57.000000         4.870709109       380.046072105     -1261.717754539     -1256.524366406        11.255979116
        58           58.000000         4.861491456       379.326847711     -1261.930349915     -1256.738859725        11.302129439
        59           59.000000         4.533604194       353.742838695     -1261.708611392     -1256.838004630        11.263665846
        60           60.000000         4.302708834       335.726801883     -1261.542205747     -1256.896023931        11.250395420
        61           61.000000         4.646381510       362.542496961     -1262.127933918     -1257.131677659        10.693573875
        62           62.000000         4.359315986       340.143679448     -1261.840607124     -1257.125067856        11.278512866
        63           63.000000         4.165112486       324.990592712     -1261.697232429     -1257.170012490        11.254106611
        64           64.000000         4.207541583       328.301201395     -1261.816380868     -1257.241103725        11.240093928
        65           65.000000         4.110888766       320.759686856     -1261.633248961     -1257.149171215        11.249689761
        66           66.000000         4.512001801       352.057272076     -1262.116513194     -1257.225806552        11.257815795
        67           67.000000         4.441682184       346.570454122     -1261.945920323     -1257.119869523        11.246242082
        68           68.000000         4.263703811       332.683362884     -1261.611073619     -1256.957554352        10.683476481
        69           69.000000         4.692785454       366.163250394     -1262.082069914     -1256.993939198        10.708864619
        70           70.000000         4.732892273       369.292659053     -1261.929912925     -1256.795850213        11.261094630
        71           71.000000         4.888057566       381.399717498     -1261.988072092     -1256.692861467        11.277249308
        72           72.000000         4.995703878       389.799019830     -1261.994296764     -1256.585217769        11.300009520
        73           73.000000         4.884014883       381.084279716     -1261.637537198     -1256.333828287        11.789827482
        74           74.000000         5.414431161       422.470989236     -1262.168485128     -1256.327666798        11.802177080
        75           75.000000         5.519326041       430.655605957     -1262.140891143     -1256.187851926        11.417644022
        76           76.000000         5.344311509       416.999773892     -1261.795969368     -1256.010417970        11.310835113
        77           77.000000         5.560904951       433.899877145     -1261.979843632     -1255.969923704        10.677166481
        78           78.000000         5.492443728       428.558063863     -1261.689134897     -1255.739547448        10.145186545
        79           79.000000         5.729258350       447.035962028     -1261.957149367     -1255.762248711        10.685019905
        80           80.000000         5.772606485       450.418280314     -1262.034698244     -1255.787450731        10.722807721
        81           81.000000         5.373657577       419.289555090     -1261.506098999     -1255.648814097        10.671168027
        82           82.000000         5.622939863       438.740265714     -1261.892616943     -1255.777006741        10.719855277
        83           83.000000         5.648668762       440.747810574     -1261.938387243     -1255.787575701        10.694585589
        84           84.000000         5.462254921       426.202526397     -1261.831784704     -1255.857858135        10.667565747
        85           85.000000         5.415936938       422.588480293     -1261.915718345     -1255.978647878        10.676629581
        86           86.000000         5.012455412       391.106089159     -1261.487793854     -1255.945051338        10.701921524
        87           87.000000         5.147035442       401.606944517     -1261.799588511     -1256.113354135        10.126358371
        88           88.000000         5.233459252       408.350321852     -1262.062995150     -1256.281228411        10.698003756
        89           89.000000         4.769767501       372.169916744     -1261.603839243     -1256.276984018        10.118171591
        90           90.000000         4.742561697       370.047133720     -1261.752093062     -1256.444179250        10.703736546
        91           91.000000         4.620573967       360.528815803     -1261.709750926     -1256.515794595        10.709853245
        92           92.000000         4.608966810       359.623145971     -1261.786417933     -1256.596275787        10.694134126
        93           93.000000         4.710584755       367.552073765     -1262.071488676     -1256.771979983        10.136959570
        94           94.000000         4.240600948       330.880719358     -1261.509096774     -1256.672232430        10.171177706
        95           95.000000         4.295702488       335.180118787     -1261.653556536     -1256.754758286        10.163271220
        96           96.000000         4.527402894       353.258970808     -1262.014702698     -1256.877298970        10.165539975
        97           97.000000         4.382151820       341.925487488     -1261.761004381     -1256.761987008        10.108406809
        98           98.000000         4.480515963       349.600531448     -1261.978140602     -1256.874044928        10.676678684
        99           99.000000         4.284794911       334.329034917     -1261.730014957     -1256.815094317        10.684511475
       100          100.000000         4.376648513       341.496081830     -1261.757989854     -1256.744859587        10.704111992
       101          101.000000         4.783413981       373.234708547     -1262.207448528     -1256.780915734        10.682491511
       102          102.000000         4.553708422       355.311508173     -1261.748730048     -1256.545145343        10.122420627
       103          103.000000         4.599906845       358.916225478     -1261.730684525     -1256.474305931        10.695275894
       104          104.000000         4.783482232       373.240033989     -1261.841592482     -1256.394893745        10.095958472
       105          105.000000         4.854164684       378.755162862     -1261.754145034     -1256.229809911        10.146566106
       106          106.000000         5.192007639       405.115983244     -1262.097741477     -1256.228252188        10.110260987
       107          107.000000         4.983808635       388.870871493     -1261.740300091     -1256.071480066        10.122888804
       108          108.000000         4.945668249       385.894897483     -1261.609612659     -1255.971493899        10.678215604
       109          109.000000         5.345408957       417.085404306     -1262.048601272     -1256.002938213        10.668236505
       110          110.000000         5.268118691       411.054688578     -1261.830762712     -1255.854173154        10.103307716
       111          111.000000         5.314035109       414.637401937     -1261.868562595     -1255.837700048        10.106487675
       112          112.000000         5.230969900       408.156085571     -1261.726446869     -1255.770162603        10.112328902
       113          113.000000         5.117528150       399.304583585     -1261.576811255     -1255.725509144        10.698190449
       114          114.000000         5.486113339       428.064123576     -1262.094247956     -1255.865577630        10.707512831
       115          115.000000         5.302924457       413.770472761     -1261.915203933     -1255.860614591        10.642511907
       116          116.000000         5.074763326       395.967779177     -1261.703759435     -1255.868445723        10.671890435
       117          117.000000         5.185483101       404.606894075     -1261.970481560     -1256.015595392        10.662233474
       118          118.000000         5.051714669       394.169365166     -1261.859045416     -1256.029025847        10.694997783
       119          119.000000         5.148621213       401.730677245     -1262.115978813     -1256.180139755        10.650746308
       120          120.000000         4.920336663       383.918353661     -1261.991359191     -1256.274963308        11.225330479
       121          121.000000         4.544655763       354.605157717     -1261.615185199     -1256.266172588        10.652302756
       122          122.000000         4.783408700       373.234296543     -1262.060002541     -1256.464142855        10.668172749
       123          123.000000         4.702579623       366.927458545     -1262.020747809     -1256.497538267        10.655457118
       124          124.000000         4.551902988       355.170635828     -1261.918731331     -1256.538280556        10.692081229
       125          125.000000         4.501628702       351.247891878     -1261.988912469     -1256.651077571        10.638633348
       126          126.000000         4.260192065       332.409352414     -1261.703230770     -1256.599519726        10.650712643
       127          127.000000         4.527417234       353.260089657     -1262.107709651     -1256.729568907        10.705017692
       128          128.000000         4.518843595       352.591115714     -1262.113270425     -1256.736370819        10.639401268
       129          129.000000         4.181393374       326.260939054     -1261.704554125     -1256.658130464        10.658125006
       130          130.000000         4.321290612       337.176679409     -1261.914622059     -1256.721608358        10.653728600
       131          131.000000         4.329413839       337.810509177     -1261.852223704     -1256.644378288        10.654276749
       132          132.000000         4.490069468       350.345961294     -1262.017962343     -1256.642707462        10.648759836
       133          133.000000         4.611689207       359.835565982     -1262.145321684     -1256.641525298        10.658748286
       134          134.000000         4.349612074       339.386513750     -1261.757884997     -1256.509374248        11.733037401
       135          135.000000         4.640573019       362.089278752     -1262.082444269     -1256.536211862        11.734912209
       136          136.000000         4.860062801       379.215374262     -1262.223987627     -1256.451117922        11.227325841
       137          137.000000         4.780413439       373.000585766     -1262.020214420     -1256.319688487        11.778932785
       138          138.000000         4.902506889       382.527152598     -1262.123206815     -1256.293198729        10.657000471
       139          139.000000         4.787921024       373.586378971     -1261.852902854     -1256.130018630        11.194558306
       140          140.000000         5.007951613       390.754671950     -1262.042784969     -1256.092268903        11.207311483
       141          141.000000         5.271866012       411.347080222     -1262.354995272     -1256.132479728        11.202252152
       142          142.000000         5.006859257       390.669438835     -1261.996608148     -1256.030861795        11.767880413
       143          143.000000         5.090257453       397.176737051     -1262.102011934     -1256.044667404        11.189900917
       144          144.000000         5.164644715       402.980940518     -1262.168084092     -1256.027910507        11.783536224
       145          145.000000         5.154770886       402.210516853     -1262.098614840     -1255.959694803        11.254420362
       146          146.000000         5.295129872       413.162285849     -1262.334910274     -1256.046775928        11.806573927
       147          147.000000         4.994306021       389.689949401     -1261.965289100     -1255.969127094        11.768334221
       148          148.000000         4.986249238       389.061304047     -1261.981581974     -1255.984822226        11.806902851
       149          149.000000         5.166290635       403.109366502     -1262.265597195     -1256.079934650        11.237393122
       150          150.000000         4.939950025       385.448722431     -1262.023512212     -1256.055291520        11.754704724
       151          151.000000         4.916719623       383.636127431     -1262.126487726     -1256.172785622        11.800054568
       152          152.000000         4.754960171       371.014547483     -1262.010767147     -1256.210265096        11.811461858
       153          153.000000         4.678324897       365.034938772     -1261.971193443     -1256.239002706        11.218262955
       154          154.000000         4.886542954       381.281537144     -1262.347329223     -1256.398518909        11.798451115
       155          155.000000         4.591217506       358.238223684     -1261.969848630     -1256.308049912        10.728370721
       156          156.000000         4.480096197       349.567778420     -1261.916184596     -1256.357609386        11.211579845
       157          157.000000         4.599510094       358.885268186     -1262.131052773     -1256.445240694        11.238385183
       158          158.000000         4.490230496       350.358525800     -1261.981564192     -1256.397263066        11.227183565
       159          159.000000         4.579489204       357.323101266     -1262.162226996     -1256.480988270        11.239827095
       160          160.000000         4.380149835       341.769278911     -1261.952646059     -1256.463220928        10.703132758
       161          161.000000         4.255500845       332.043311343     -1261.797567974     -1256.425626105        10.673521951
       162          162.000000         4.551335651       355.126368328     -1262.189678106     -1256.514696570        10.680257037
       163          163.000000         4.460630411       348.048924497     -1262.024438516     -1256.432841528        10.645833904
       164          164.000000         4.428714997       345.558665430     -1262.001094985     -1256.434247270        10.650903889
       165          165.000000         4.463916957       348.305363329     -1262.008775945     -1256.399614385        10.661658621
       166          166.000000         4.399550407       343.283044428     -1261.760079657     -1256.208244323        10.695634944
       167          167.000000         4.678725463       365.066193614     -1262.158624838     -1256.320450424        11.236962068
       168          168.000000         4.604280093       359.257456177     -1262.007590456     -1256.236533262        11.215767723
       169          169.000000         4.453437425       347.487678505     -1261.767571903     -1256.140211222        11.188432790
       170          170.000000         4.692020899       366.103594612     -1262.045519434     -1256.172383296        11.187309481
       171          171.000000         4.721118442       368.373984107     -1261.973620725     -1256.063966182        11.234836270
       172          172.000000         4.863821571       379.508659238     -1262.090545395     -1256.030594068        10.697607020
       173          173.000000         4.881166626       380.862039178     -1262.117026543     -1256.031943592        11.199194430
       174          174.000000         4.699729629       366.705082452     -1261.777731856     -1255.866364744        10.676334524
       175          175.000000         4.954625791       386.593826225     -1261.993149111     -1255.819065137        10.644118911
       176          176.000000         4.971297895       387.894697914     -1261.961689890     -1255.762810739        10.685685667
       177          177.000000         4.842340104       377.832528133     -1261.794340539     -1255.716302449        10.091006217
       178          178.000000         4.907582528       382.923188748     -1261.933046030     -1255.781641042        10.110654935
       179          179.000000         4.791043823       373.830041063     -1261.771866912     -1255.728858206        10.134997188
       180          180.000000         4.943616913       385.734838133     -1261.993653002     -1255.789855333        10.661776345
       181          181.000000         4.952749653       386.447437055     -1262.054988391     -1255.833639808        10.624341060
       182          182.000000         4.646756255       362.571737165     -1261.708829626     -1255.785251962        10.640633512
       183          183.000000         4.729287128       369.011360933     -1261.907665861     -1255.893526052        10.637130730
       184          184.000000         4.692236963       366.120453418     -1261.905426877     -1255.920264169        10.684958456
       185          185.000000         4.620245157       360.503159775     -1261.869936915     -1255.948791202        10.633242434
       186          186.000000         4.637307830       361.834506378     -1262.018822598     -1256.072705341        10.640404759
       187          187.000000         4.387796834       342.365950198     -1261.743371742     -1256.039079659        10.648037285
       188          188.000000         4.471103974       348.866143623     -1261.886385550     -1256.091305542        10.630682844
       189          189.000000         4.540255346       354.261807069     -1262.024311216     -1256.152522682        10.667310856
       190          190.000000         4.305289781       335.928184972     -1261.762472524     -1256.118272596        10.661880987
       191          191.000000         4.310935417       336.368696152     -1261.854920806     -1256.197964634        10.093866979
       192          192.000000         4.227639180       329.869353481     -1261.761389513     -1256.180760876        10.127568002
       193          193.000000         4.268758197       333.077740694     -1261.814494145     -1256.185898089        10.091963900
       194          194.000000         4.407848325       343.930504816     -1262.030076366     -1256.255470585        10.116622447
       195          195.000000         4.189496775       326.893221913     -1261.732635260     -1256.169574596        10.115777449
       196          196.000000         4.259439358       332.350621113     -1261.820029541     -1256.180413259        10.122387868
       197          197.000000         4.393798760       342.834261561     -1261.966841555     -1256.186155945        10.080819129
       198          198.000000         4.328174023       337.713770237     -1261.811383362     -1256.089595412        10.123346807
       199          199.000000         4.408824062       344.006638448     -1261.913540854     -1256.104402110        10.087102233
       200          200.000000         4.276422429       333.675756556     -1261.696308746     -1256.012936662        10.075784618
       201          201.000000         4.340272611       338.657784913     -1261.724697553     -1255.970933970        10.172049829
       202          202.000000         4.614375121       360.045139431     -1262.006432529     -1255.971792754        10.083449343
       203          203.000000         4.534625399       353.822520053     -1261.844750434     -1255.882914241        10.086986064
       204          204.000000         4.614564122       360.059886561     -1261.909570418     -1255.860826131        10.097963635
       205          205.000000         4.707049943       367.276263522     -1261.978025952     -1255.829656302        10.116472364
       206          206.000000         4.717652845       368.103574499     -1261.911475293     -1255.745225848        10.108860533
       207          207.000000         4.906568034       382.844030995     -1262.154871375     -1255.792206061        10.085497578
       208          208.000000         4.776414447       372.688557003     -1261.944780414     -1255.704623796        10.120700308
       209          209.000000         4.741444403       369.959954790     -1261.866535339     -1255.653758904        10.089739095
       210          210.000000         4.939061866       385.379422204     -1262.152282331     -1255.734099543        10.124479306
       211          211.000000         4.877812302       380.600311911     -1262.085817215     -1255.720885381        10.101275011
       212          212.000000         4.901390751       382.440063895     -1262.167500166     -1255.770930668        10.694057140
       213          213.000000         4.808355695       375.180831861     -1262.106124175     -1255.794502752        10.648932953
       214          214.000000         4.676581496       364.898906699     -1261.979880983     -1255.792075798        10.109916258
       215          215.000000         4.819302797       376.034999723     -1262.241102355     -1255.902576763        10.111586185
       216          216.000000         4.662497522       363.799978555     -1262.097330080     -1255.907577365        10.092560854
       217          217.000000         4.511490486       352.017375779     -1261.989132159     -1255.942601979        10.100979248
       218          218.000000         4.532140892       353.628661829     -1262.083148344     -1256.008313704        10.122648477
       219          219.000000         4.417299113       344.667919930     -1261.986911433     -1256.019368623        10.107794182
       220          220.000000         4.472520572       348.976676305     -1262.148158806     -1256.117936815        10.120441188
       221          221.000000         4.342849720       338.858868574     -1262.063604418     -1256.155695883        10.136207366
       222          222.000000         4.121643337       321.598832095     -1261.766375418     -1256.072669317        10.112641463
       223          223.000000         4.238140398       330.688730403     -1261.994170432     -1256.177144356        10.130173813
       224          224.000000         4.195392237       327.353226180     -1261.889225051     -1256.108142405        10.675186060
       225          225.000000         4.163104977       324.833953112     -1261.878969165     -1256.123508347        10.667745383
       226          226.000000         4.182597407       326.354885947     -1261.932531965     -1256.151003781        10.136568146
       227          227.000000         4.083602864       318.630653928     -1261.782619346     -1256.093648547        10.113855906