#     Step Nr.          Time[fs]        Kin.[a.u.]          Temp[K]            Pot.[a.u.]        Cons Qty[a.u.]        UsedTime[s]
         0            0.000000         3.844830508       300.000000000     -1263.244081194     -1259.398775663         0.000000000
         1            1.000000         3.289616337       256.678389083     -1262.736701971     -1259.445829483        47.025790054
         2            2.000000         2.636336435       205.705018410     -1261.830349778     -1259.192192890        12.870142903
         3            3.000000         3.740359048       291.848421418     -1263.287923309     -1259.545309265        12.215858724
         4            4.000000         3.373023183       263.186362216     -1262.794108505     -1259.418392926        12.897472586
         5            5.000000         2.731536758       213.133199424     -1262.001809232     -1259.267282274        12.995892361
         6            6.000000         3.303348338       257.749853817     -1262.893588994     -1259.587113265        12.994555619
         7            7.000000         2.885108611       225.115926832     -1262.231600530     -1259.343325693        13.135002866
         8            8.000000         3.108611216       242.555130286     -1262.613154929     -1259.501480206        12.273288842
         9            9.000000         2.655568619       207.205645088     -1262.191779122     -1259.533364907        12.243203383
        10           10.000000         1.680316220       131.109775808     -1260.892011047     -1259.209146273        12.260264508
        11           11.000000         2.900161316       226.290441876     -1262.488552475     -1259.586405499        12.217003047
        12           12.000000         3.208087468       250.316948479     -1262.705265183     -1259.496096609        12.268501870
        13           13.000000         3.025538998       236.073267090     -1262.416160371     -1259.390574711        12.221460488
        14           14.000000         3.273253122       255.401619025     -1262.884983676     -1259.612857138        12.278534394
        15           15.000000         2.574043112       200.844466855     -1261.871113951     -1259.299386664        12.857935611
        16           16.000000         3.324375745       259.390556027     -1262.860728748     -1259.540044316        12.244076949
        17           17.000000         3.528591487       275.324866415     -1263.143773664     -1259.620571623        12.216724548
        18           18.000000         2.590043014       202.092888764     -1261.878917484     -1259.295846970        12.270738326
        19           19.000000         3.410231839       266.089636355     -1263.006168944     -1259.604630781        12.892246757
        20           20.000000         3.724927338       290.644333752     -1263.212073742     -1259.497971032        12.902701106
        21           21.000000         4.045552989       315.661742184     -1263.501779544     -1259.469389972        12.242437847
        22           22.000000         4.352558976       339.616451231     -1264.028668410     -1259.691749208        12.359663744
        23           23.000000         3.123294801       243.700844121     -1262.414797051     -1259.309277700        12.233187500
        24           24.000000         3.587122431       279.891851367     -1263.074510922     -1259.507163679        12.900357388
        25           25.000000         4.134944568       322.636685197     -1263.730077143     -1259.617245881        12.239277974
        26           26.000000         3.573057437       278.794404262     -1262.864802103     -1259.316149679        12.238408700
        27           27.000000         3.997191332       311.888234605     -1263.542521360     -1259.572001159        12.269366849
        28           28.000000         3.628288072       283.103876544     -1262.917396506     -1259.318036795        12.241361745
        29           29.000000         3.937503586       307.230988035     -1263.289111186     -1259.382784968        12.950849015
        30           30.000000         4.552623319       355.226841031     -1264.177327878     -1259.658355095        12.898963008
        31           31.000000         3.244586667       253.164865899     -1262.563159400     -1259.354384156        13.537265524
        32           32.000000         3.242381238       252.992783281     -1262.703536772     -1259.498820911        12.928737216
        33           33.000000         3.633604872       283.518729659     -1263.177872273     -1259.583978233        13.504601590
        34           34.000000         3.559628831       277.746612533     -1262.976000943     -1259.458250191        14.198057871
        35           35.000000         4.259483245       332.354045436     -1263.970822472     -1259.755584689        14.176391173
        36           36.000000         3.494376730       272.655196850     -1262.930385728     -1259.482530345        14.766944468
        37           37.000000         3.445649491       268.853164050     -1262.838279288     -1259.441209402        14.194073927
        38           38.000000         4.330038092       337.859217699     -1264.034219501     -1259.755093174        14.176562112
        39           39.000000         3.544610633       276.574789873     -1262.920444525     -1259.429021935        14.121554527
        40           40.000000         3.539231945       276.155107799     -1263.052849566     -1259.568860565        14.122228667
        41           41.000000         3.524044709       274.970095689     -1263.053960834     -1259.587233890        13.555417188
        42           42.000000         3.522089227       274.817515593     -1262.849211173     -1259.386535894        13.543737069
        43           43.000000         4.667312213       364.175653762     -1264.352178077     -1259.746711735        13.517786805
        44           44.000000         3.929731363       306.624545928     -1263.359635864     -1259.494137335        13.550082512
        45           45.000000         3.426454915       267.355471770     -1262.783919270     -1259.423680671        14.191951029
        46           46.000000         3.997278766       311.895056787     -1263.594436030     -1259.665394074        14.150791552
        47           47.000000         3.591501666       280.233549266     -1262.929909779     -1259.408667547        14.757223155
        48           48.000000         3.996550571       311.838238082     -1263.557368152     -1259.633090736        14.828952372
        49           49.000000         3.653686197       285.085612131     -1263.155777605     -1259.576345334        14.147000596
        50           50.000000         3.198191220       249.544775475     -1262.464970497     -1259.342807931        14.167345531
        51           51.000000         4.419638972       344.850491746     -1264.069718301     -1259.728126545        13.546164334
        52           52.000000         4.089409301       319.083711892     -1263.535521896     -1259.526287755        13.504706785
        53           53.000000         3.598065258       280.745685696     -1262.980405747     -1259.464353289        13.508088656
        54           54.000000         3.679009696       287.061524910     -1263.152640229     -1259.557378335        12.916388012
        55           55.000000         3.197156678       249.464053409     -1262.374583063     -1259.262819562        13.514471672
        56           56.000000         4.119229709       321.410504354     -1263.569536124     -1259.537501355        13.515719138
        57           57.000000         4.049845913       315.996705551     -1263.453061712     -1259.492346522        12.871252634
        58           58.000000         3.256036950       254.058295392     -1262.387064803     -1259.221829448        12.907045305
        59           59.000000         4.044500052       315.579584815     -1263.489850252     -1259.537856733        12.865213033
        60           60.000000         3.925083310       306.261873052     -1263.176289536     -1259.345513741        12.849553786
        61           61.000000         3.953061247       308.444903222     -1263.211144245     -1259.354109220        12.265736312
        62           62.000000         3.934617316       307.005781436     -1263.341107629     -1259.504176369        12.242289018
        63           63.000000         3.041826420       237.344123259     -1262.161903601     -1259.219199399        12.913752157
        64           64.000000         3.973003187       310.000909942     -1263.350054251     -1259.477688543        12.860203333
        65           65.000000         4.291105153       334.821403218     -1263.711137788     -1259.522399568        12.842618559
        66           66.000000         3.632945207       283.467258149     -1262.834162759     -1259.305139362        12.896772031
        67           67.000000         3.957830964       308.817069246     -1263.443505323     -1259.591065837        12.838626448
        68           68.000000         3.525076852       275.050630531     -1262.799164454     -1259.380890036        12.945637528
        69           69.000000         3.921779012       306.004049067     -1263.285716612     -1259.472151423        12.883726202
        70           70.000000         4.274850400       333.553096079     -1263.806422071     -1259.641285604        12.869618930
        71           71.000000         3.183399835       248.390650387     -1262.330274212     -1259.257874041        12.881615367
        72           72.000000         3.709132125       289.411883045     -1263.083884134     -1259.486993350        12.942594483
        73           73.000000         4.093283943       319.386038023     -1263.480665433     -1259.501024000        12.873563286
        74           74.000000         3.897945453       304.144391676     -1263.058760529     -1259.275823264        12.896091118
        75           75.000000         4.183586517       326.432063121     -1263.618160401     -1259.550905867        12.835919242
        76           76.000000         3.255342234       254.004088887     -1262.393107603     -1259.255252213        12.928296369
        77           77.000000         3.553533374       277.271003172     -1262.793862390     -1259.358925076        12.894668952
        78           78.000000         4.288453783       334.614525161     -1263.630756227     -1259.462192115        12.896355260
        79           79.000000         3.518097536       274.506056492     -1262.547715166     -1259.150716121        12.876387347
        80           80.000000         3.729209015       290.978419488     -1262.955971355     -1259.348994682        12.888307307
        81           81.000000         3.665198480       285.983879267     -1262.807870778     -1259.266063626        12.218956884
        82           82.000000         3.701244353       288.796425090     -1262.744208463     -1259.167515732        12.257123888
        83           83.000000         4.423604483       345.159908106     -1263.790746949     -1259.492955572        12.873122036
        84           84.000000         3.455613772       269.630645460     -1262.536304106     -1259.207628296        12.834404871
        85           85.000000         3.365349079       262.587576071     -1262.513982306     -1259.276571586        12.830432624
        86           86.000000         4.039825189       315.214820065     -1263.399266983     -1259.488516087        12.881730132
        87           87.000000         3.718943246       290.177413909     -1262.861544605     -1259.272826562        12.866468575
        88           88.000000         4.100849429       319.976349028     -1263.480598956     -1259.511117093        12.890787315
        89           89.000000         3.634708644       283.604853540     -1262.910453523     -1259.408189983        12.841220517
        90           90.000000         3.433577512       267.911225593     -1262.584440446     -1259.284304082        12.970893107
        91           91.000000         4.401177637       343.410012004     -1263.895803123     -1259.629200771        12.864353705
        92           92.000000         3.757350768       293.174231694     -1262.991437372     -1259.369747297        12.824987475
        93           93.000000         3.535144174       275.836151944     -1262.786960712     -1259.388433600        12.869199816
        94           94.000000         3.779613965       294.911358748     -1263.200592644     -1259.558584061        12.915826675
        95           95.000000         3.541392973       276.323725991     -1262.733682545     -1259.330888649        12.840085547
        96           96.000000         4.312198640       336.467261451     -1263.772746812     -1259.600228206        12.833008096
        97           97.000000         3.811579756       297.405548628     -1263.136879126     -1259.466014184        12.863584444
        98           98.000000         3.227507227       251.832211110     -1262.371774135     -1259.285868339        12.950389411
        99           99.000000         4.048159011       315.865081838     -1263.533993483     -1259.628420248        12.880823076
       100          100.000000         3.792011996       295.878738017     -1263.090522460     -1259.442123962        12.855971117
       101          101.000000         3.863038167       301.420686174     -1263.235666079     -1259.517229591        12.868308831
       102          102.000000         3.788067604       295.570969615     -1263.214714897     -1259.572219926        12.819242042
       103          103.000000         3.245469878       253.233780082     -1262.413251531     -1259.314252048        12.901090458
       104          104.000000         4.220330465       329.299077465     -1263.741302074     -1259.668459211        12.881460506
       105          105.000000         4.070086061       317.575980419     -1263.498608810     -1259.577071552        12.834540728
       106          106.000000         3.432716963       267.844079621     -1262.696075008     -1259.412819893        12.919460420
       107          107.000000         3.812741388       297.496187114     -1263.423159585     -1259.760801816        15.447683666
       108          108.000000         3.549774366       276.977699681     -1262.956271844     -1259.557824325        15.467873935
       109          109.000000         4.080852968       318.416088263     -1263.626655576     -1259.698130922        15.457403127
       110          110.000000         4.116172383       321.171950836     -1263.733466696     -1259.770645807        14.164216727
       111          111.000000         3.230305222       252.050529796     -1262.533740622     -1259.457660603        13.553617347
       112          112.000000         3.922163223       306.034027873     -1263.496515577     -1259.729494739        14.352582753
       113          113.000000         4.039520227       315.191024823     -1263.549903641     -1259.666530223        13.497054253
       114          114.000000         3.812801889       297.500907824     -1263.277157784     -1259.621449457        15.438451517
       115          115.000000         4.003629482       312.390583170     -1263.631174459     -1259.785563955        15.428945839
       116          116.000000         3.340352967       260.637208331     -1262.694879592     -1259.513393539        15.422900956
       117          117.000000         3.937996376       307.269438847     -1263.459454154     -1259.681220578        14.783831410
       118          118.000000         4.342450832       338.827744615     -1263.929022361     -1259.747324330        14.159325991
       119          119.000000         3.551954058       277.147774191     -1262.845222014     -1259.454883632        14.153749216
       120          120.000000         3.873296551       302.221115523     -1263.346165776     -1259.635315744        14.116163399
       121          121.000000         3.791675410       295.852475290     -1263.133931954     -1259.505554797        13.537374362
       122          122.000000         3.917186969       305.645746444     -1263.226990362     -1259.473953744        13.547074493
       123          123.000000         4.328940563       337.773580977     -1263.900807237     -1259.736894297        13.460617751
       124          124.000000         3.430688166       267.685779019     -1262.688691033     -1259.423783902        13.502455611
       125          125.000000         3.743058611       292.059059811     -1263.137654953     -1259.561115254        13.471489381
       126          126.000000         4.248079244       331.464227250     -1263.754600507     -1259.673868357        14.100305900
       127          127.000000         3.821196887       298.155943095     -1263.062217399     -1259.409136676        14.150266744
       128          128.000000         4.061234443       316.885316625     -1263.507571988     -1259.615184447        14.143618084
       129          129.000000         3.588408674       279.992212851     -1262.854561663     -1259.435677166        13.482270796
       130          130.000000         3.723438696       290.528179660     -1262.967462175     -1259.414223121        13.438044872
       131          131.000000         4.494735612       350.710045798     -1264.014901308     -1259.691124657        13.515162818
       132          132.000000         3.760582547       293.426397289     -1262.999961643     -1259.410998167        13.489327665
       133          133.000000         3.758328327       293.250507614     -1263.089221445     -1259.503105409        14.072787438
       134          134.000000         3.969288910       309.711096611     -1263.397895919     -1259.601435655        14.092728835
       135          135.000000         3.802031330       296.660515053     -1263.064400119     -1259.435796691        14.110625722
       136          136.000000         4.350307588       339.440782495     -1263.860723697     -1259.684456682        14.754950356
       137          137.000000         3.713011720       289.714595675     -1263.042037871     -1259.503595038        14.784972899
       138          138.000000         3.516728931       274.399268607     -1262.812174709     -1259.470498118        14.104026098
       139          139.000000         4.278060710       333.803586450     -1263.827240503     -1259.724791478        14.805533078
       140          140.000000         3.919802362       305.849817349     -1263.255414946     -1259.511746969        14.755768735
       141          141.000000         4.002144544       312.274718107     -1263.433392173     -1259.607856223        14.073313605
       142          142.000000         3.833083472       299.083415792     -1263.310354449     -1259.654320011        14.089812625
       143          143.000000         3.532380523       275.620512920     -1262.835712001     -1259.480796856        14.108725507
       144          144.000000         4.354937719       339.802057052     -1263.952026673     -1259.775032196        14.747048210
       145          145.000000         3.954087458       308.524975232     -1263.345143407     -1259.569424009        14.098782413
       146          146.000000         3.572871733       278.779914394     -1262.872755232     -1259.478611407        14.088914569
       147          147.000000         4.016080999       313.362135776     -1263.498615215     -1259.661656382        14.108805802
       148          148.000000         3.807790412       297.109878110     -1263.081565732     -1259.453283452        14.079794869
       149          149.000000         4.238256536       330.697792289     -1263.673011377     -1259.614648199        14.136591870
       150          150.000000         4.006351180       312.602948657     -1263.428958159     -1259.602827553        14.080234703
       151          151.000000         3.395693321       264.955241609     -1262.626255089     -1259.411051839        14.056030702
       152          152.000000         4.133523247       322.525784038     -1263.611381690     -1259.658677038        14.099673998
       153          153.000000         4.024002400       313.980217679     -1263.250012876     -1259.407144462        13.493081871
       154          154.000000         3.823264210       298.317249752     -1263.053819137     -1259.411956760        14.080912132
       155          155.000000         3.933733867       306.936848736     -1263.304655491     -1259.552583480        13.466402881
       156          156.000000         3.479074307       271.461196996     -1262.649476019     -1259.352307176        14.119283553
       157          157.000000         4.118738979       321.372214220     -1263.524567822     -1259.588028749        14.714074090
       158          158.000000         4.158748474       324.494028964     -1263.559169412     -1259.582897400        14.746428668
       159          159.000000         3.471244448       270.850257770     -1262.620622548     -1259.332064380        15.370163012
       160          160.000000         3.874006604       302.276518756     -1263.237300763     -1259.546227561        15.383727960
       161          161.000000         3.782445574       295.132300270     -1263.050150052     -1259.450900653        14.088101108
       162          162.000000         3.934480102       306.995075057     -1263.219086979     -1259.468073474        14.090288032
       163          163.000000         4.102700190       320.120758045     -1263.557142783     -1259.638170691        14.112603452
       164          164.000000         3.368051866       262.798466070     -1262.549157723     -1259.365047895        14.051001988
       165          165.000000         3.839713519       299.600737435     -1263.118814092     -1259.463310733        13.444789357
       166          166.000000         4.089462152       319.087835724     -1263.442285932     -1259.537333917        14.096771080
       167          167.000000         3.668199766       286.218060185     -1262.857269073     -1259.373840142        13.478671834
       168          168.000000         3.888303800       303.392083892     -1263.247069426     -1259.543808768        13.418619283
       169          169.000000         3.532557177       275.634296696     -1262.732687813     -1259.385445746        13.454797089
       170          170.000000         3.822330068       298.244361632     -1263.083155984     -1259.446454913        13.504364762
       171          171.000000         4.254182077       331.940412006     -1263.677053164     -1259.608844229        13.445806816
       172          172.000000         3.534633431       275.796300235     -1262.704424229     -1259.356042308        13.440663848
       173          173.000000         3.712009296       289.636379679     -1263.018854257     -1259.493392383        12.870164629
       174          174.000000         3.855220159       300.810671687     -1263.239359702     -1259.571022262        14.082298245
       175          175.000000         3.734732878       291.409429083     -1262.992586070     -1259.445076114        14.105798639
       176          176.000000         4.097658093       319.727339167     -1263.578308975     -1259.668234403        14.686273202
       177          177.000000         3.529811862       275.420088437     -1262.791455856     -1259.449551275        14.058377955
       178          178.000000         3.639498324       283.978577137     -1262.892113900     -1259.440870065        13.442109257
       179          179.000000         4.209486077       328.452924119     -1263.666519847     -1259.645697667        13.477303416
       180          180.000000         3.753701702       292.889506634     -1262.950583572     -1259.385912544        13.440226052
       181          181.000000         3.850024833       300.405296784     -1263.234821101     -1259.574180903        14.096911743
       182          182.000000         3.715393478       289.900436733     -1263.092460817     -1259.566808495        14.076582938
       183          183.000000         3.655543464       285.230528829     -1262.924007028     -1259.458574884        13.434549499
       184          184.000000         4.269662516       333.148301879     -1263.822792200     -1259.743660047        14.713740710
       185          185.000000         3.751924932       292.750870870     -1263.114984874     -1259.553956211        15.335996751
       186          186.000000         3.620000637       282.457234152     -1262.996398017     -1259.567637731        15.374424823
       187          187.000000         4.011429097       312.999162516     -1263.512551101     -1259.692750319        14.683689222
       188          188.000000         3.799434272       296.457874853     -1263.134292565     -1259.526865129        15.305931501
       189          189.000000         4.102602496       320.113135343     -1263.588339659     -1259.678122715        15.336379025
       190          190.000000         3.795304788       296.135664198     -1263.152591279     -1259.550013712        14.027168434
       191          191.000000         3.507913618       273.711437520     -1262.829179899     -1259.514317858        15.318009492
       192          192.000000         4.167254309       325.157712449     -1263.586998023     -1259.613180281        13.448088754
       193          193.000000         3.909435599       305.040931519     -1263.188370487     -1259.472733332        14.056245845
       194          194.000000         3.781452807       295.054837839     -1263.101518457     -1259.514192319        14.110203907
       195          195.000000         3.875373349       302.383161522     -1263.214371281     -1259.533458620        13.386476092
       196          196.000000         3.598648543       280.791197552     -1262.783449742     -1259.379590958        14.026130475
       197          197.000000         4.113662078       320.976079601     -1263.503952488     -1259.585449632        14.027774423
       198          198.000000         3.917232870       305.649327963     -1263.247480023     -1259.525754015        14.004386302
       199          199.000000         3.475855223       271.210022034     -1262.687248558     -1259.407211787        14.028659828
       200          200.000000         3.913485536       305.356935292     -1263.374593951     -1259.657289222        14.693808172
       201          201.000000         3.789888441       295.713043776     -1263.141323469     -1259.547993772        15.353712384
       202          202.000000         3.901388143       304.413013922     -1263.316908370     -1259.612461775        15.321125370
       203          203.000000         3.882447660       302.935147709     -1263.289093678     -1259.603967214        14.040840499
       204          204.000000         3.386677261       264.251746880     -1262.583827680     -1259.394829996        13.991757192
       205          205.000000         3.912206291       305.257119869     -1263.320366964     -1259.606264639        14.090962194
       206          206.000000         3.973124361       310.010364740     -1263.295744307     -1259.521180267        14.003517583
       207          207.000000         3.655205991       285.204196886     -1262.883507654     -1259.427287904        14.707622670
       208          208.000000         3.880810258       302.807386393     -1263.231643412     -1259.550264749        14.073852245
       209          209.000000         3.639776593       284.000289659     -1262.898243335     -1259.458347492        14.050546113
       210          210.000000         3.943963636       307.735045324     -1263.250489375     -1259.506887316        14.026082672
       211          211.000000         4.103932753       320.216931065     -1263.491389110     -1259.588311636        14.029452465
       212          212.000000         3.525896501       275.114585185     -1262.730668959     -1259.406063391        13.355690259
       213          213.000000         3.818394369       297.937271429     -1263.192155513     -1259.575512685        13.427241053
       214          214.000000         3.884227743       303.074041961     -1263.204181535     -1259.522199810        13.405993775
       215          215.000000         3.797716637       296.323853209     -1263.062770763     -1259.467790015        13.404472820
       216          216.000000         3.994688669       311.692959701     -1263.404915083     -1259.613462359        13.376113988
       217          217.000000         3.540065820       276.220172464     -1262.685631930     -1259.349272794        12.763862912
       218          218.000000         3.787824598       295.552008551     -1263.005599866     -1259.421982485        13.418588564
       219          219.000000         4.117546615       321.279177834     -1263.433967448     -1259.521178077        12.748174395
       220          220.000000         3.712286334       289.657996032     -1262.847571366     -1259.340551569        12.795182988
       221          221.000000         3.861616817       301.309782702     -1263.106185961     -1259.450341594        13.428619273
       222          222.000000         3.770276474       294.182783840     -1262.980947213     -1259.416956501        13.407301184
       223          223.000000         3.822084174       298.225175248     -1262.993244052     -1259.377968518        12.789422028
       224          224.000000         4.192196098       327.103841545     -1263.518181178     -1259.533342791        12.814191766
       225          225.000000         3.700534712       288.741054060     -1262.865496897     -1259.372813158        12.791670918
       226          226.000000         3.753055303       292.839070166     -1262.957015207     -1259.412292187        12.756154951
       227          227.000000         4.045848340       315.684787491     -1263.343909574     -1259.506910576        12.761021644