#     Step Nr.          Time[fs]        Kin.[a.u.]          Temp[K]            Pot.[a.u.]        Cons Qty[a.u.]        UsedTime[s]
         0            0.000000         3.844830508       300.000000000     -1262.808039350     -1258.962733820         0.000000000
         1            1.000000         3.845291202       300.035946514     -1262.797801105     -1258.951180093        50.711833384
         2            2.000000         3.870642306       302.014013170     -1262.807987264     -1258.935156716        13.275337428
         3            3.000000         3.907154788       304.862967015     -1262.829709267     -1258.919495355        12.714948203
         4            4.000000         3.966781569       309.515456705     -1262.997500710     -1259.026764931        13.306995537
         5            5.000000         3.866803221       301.714461468     -1262.895202890     -1259.023534212        13.923640423
         6            6.000000         3.858932114       301.100303849     -1262.908452213     -1259.043749121        13.971539047
         7            7.000000         3.957686741       308.805815933     -1263.013035516     -1259.048655970        13.363906078
         8            8.000000         3.962155278       309.154481824     -1262.983090948     -1259.013288059        12.725223370
         9            9.000000         3.961129923       309.074476567     -1262.994100928     -1259.024344134        13.373789717
        10           10.000000         3.880269395       302.765184614     -1262.900523839     -1259.010636806        13.396111343
        11           11.000000         3.867743284       301.787811654     -1262.879296320     -1259.000947575        13.341365878
        12           12.000000         3.982868833       310.770695175     -1263.032649767     -1259.038166646        13.329561774
        13           13.000000         3.935306053       307.059521455     -1262.963569115     -1259.015607235        14.009711575
        14           14.000000         3.871617592       302.090111696     -1262.862728962     -1258.977410824        13.316245858
        15           15.000000         3.879945809       302.739936146     -1262.905151750     -1259.010461047        13.343930963
        16           16.000000         3.901781133       304.443677644     -1262.909172991     -1258.991591354        12.792887166
        17           17.000000         3.989579320       311.294293303     -1262.981241952     -1258.974778528        12.726105686
        18           18.000000         3.924633145       306.226748105     -1262.879867864     -1258.937238498        12.702974018
        19           19.000000         3.819052964       297.988659519     -1262.760035897     -1258.921883926        12.698054168
        20           20.000000         3.871394175       302.072679139     -1262.837592360     -1258.946005681        12.736037128
        21           21.000000         3.889404221       303.477946263     -1262.858695398     -1258.947991264        12.746790178
        22           22.000000         3.902912212       304.531932161     -1262.877998415     -1258.952666136        12.694377381
        23           23.000000         3.866638777       301.701630432     -1262.842808900     -1258.952623459        12.704510596
        24           24.000000         3.818409396       297.938443956     -1262.758293857     -1258.915220212        12.730573021
        25           25.000000         3.931348278       306.750708715     -1262.930499614     -1258.973362257        12.670355603
        26           26.000000         3.945814029       307.879425678     -1262.964471936     -1258.991711332        12.738051210
        27           27.000000         3.864728198       301.552553955     -1262.851046919     -1258.958207508        12.737096153
        28           28.000000         3.845045636       300.016785713     -1262.847550245     -1258.973239436        12.694520291
        29           29.000000         3.826994239       298.608292185     -1262.814941534     -1258.957535020        12.723828588
        30           30.000000         3.911088013       305.169864171     -1262.824501568     -1258.881846722        12.081777740
        31           31.000000         3.937120907       307.201128795     -1262.855954759     -1258.886085511        12.719149578
        32           32.000000         3.860405856       301.215295271     -1262.760751804     -1258.866409294        12.799865123
        33           33.000000         3.916311711       305.577452803     -1262.812825699     -1258.861387410        12.085968908
        34           34.000000         3.957711014       308.807709882     -1262.873995863     -1258.879941086        12.713900480
        35           35.000000         3.956367716       308.702896554     -1262.862691769     -1258.868736866        12.717844103
        36           36.000000         3.953260501       308.460450384     -1262.866744592     -1258.874633512        12.128311761
        37           37.000000         3.892755024       303.739398857     -1262.770626203     -1258.837749120        12.092845753
        38           38.000000         3.963808343       309.283465247     -1262.856966945     -1258.851752713        12.086215559
        39           39.000000         4.025278078       314.079754801     -1262.931904819     -1258.863893684        12.109753706
        40           40.000000         3.958080115       308.836509698     -1262.795254809     -1258.793084447        12.121701211
        41           41.000000         3.949293721       308.150935076     -1262.799307792     -1258.804557977        12.695431162
        42           42.000000         3.929962133       306.642552223     -1262.772583420     -1258.795786582        12.151533157
        43           43.000000         3.951233608       308.302298354     -1262.813026142     -1258.813564140        12.094901506
        44           44.000000         3.981057474       310.629360572     -1262.860655444     -1258.829948743        12.055604756
        45           45.000000         3.894843616       303.902365096     -1262.745279185     -1258.799355087        12.094971374
        46           46.000000         3.924776138       306.237905381     -1262.769194378     -1258.791908176        12.055349629
        47           47.000000         3.993062714       311.566091539     -1262.852274757     -1258.805241934        12.111377750
        48           48.000000         3.959889981       308.977727804     -1262.772941735     -1258.757592496        12.065119185
        49           49.000000         3.940768155       307.485712008     -1262.743176699     -1258.745451596        12.057379756
        50           50.000000         3.865343843       301.600590828     -1262.651542948     -1258.727750333        12.064634163
        51           51.000000         3.884944579       303.129974459     -1262.634510739     -1258.689635976        12.098517481
        52           52.000000         3.981526164       310.665930975     -1262.766284611     -1258.723321139        12.135425828
        53           53.000000         3.927120066       306.420794670     -1262.689444203     -1258.699354583        12.128700417
        54           54.000000         3.909646404       305.057379946     -1262.676132252     -1258.701987717        12.071453866
        55           55.000000         3.929081451       306.573835414     -1262.701106666     -1258.705991838        12.101439282
        56           56.000000         3.935153612       307.047626989     -1262.726365984     -1258.723630173        12.076242991
        57           57.000000         3.954103804       308.526250671     -1262.748094301     -1258.724844442        12.089725088
        58           58.000000         3.835218539       299.250008362     -1262.663253070     -1258.757334895        12.673077617
        59           59.000000         3.786864896       295.477126055     -1262.545722236     -1258.686646898        12.714729164
        60           60.000000         3.884592400       303.102495059     -1262.661971436     -1258.703665619        12.707448788
        61           61.000000         3.911322603       305.188168500     -1262.662264547     -1258.675704967        12.082299169
        62           62.000000         3.915350399       305.502444658     -1262.675335091     -1258.683215705        12.109759714
        63           63.000000         3.852022705       300.561184405     -1262.651913133     -1258.721599323        12.106133338
        64           64.000000         3.805327949       296.917739877     -1262.602426513     -1258.717316077        12.688627973
        65           65.000000         3.900665309       304.356613401     -1262.758962055     -1258.777029186        12.716699101
        66           66.000000         3.878287828       302.610569149     -1262.725730006     -1258.764678912        12.750616554
        67           67.000000         3.824671079       298.427023290     -1262.679043071     -1258.770133694        12.695410300
        68           68.000000         3.863806262       301.480618208     -1262.795361796     -1258.845858970        12.142559119
        69           69.000000         3.896807349       304.055588966     -1262.821478827     -1258.837511897        12.751083646
        70           70.000000         3.978941688       310.464272437     -1262.930753209     -1258.863168398        12.708854999
        71           71.000000         3.948738108       308.107582358     -1263.005384547     -1258.966498869        13.330226675
        72           72.000000         3.864506252       301.535236235     -1262.871247063     -1258.915104621        13.398005869
        73           73.000000         3.939767182       307.407609272     -1262.970482082     -1258.937597976        13.393786781
        74           74.000000         3.984107041       310.867308677     -1262.996899070     -1258.918167672        13.365572460
        75           75.000000         3.998649540       312.002013955     -1263.044488175     -1258.949682872        13.961209431
        76           76.000000         4.010333908       312.913708368     -1263.115512742     -1259.007470629        14.048861761
        77           77.000000         3.975191308       310.171642144     -1263.020048335     -1258.945584297        13.360969849
        78           78.000000         4.044713232       315.596218609     -1263.133947605     -1258.988377568        14.025746536
        79           79.000000         4.048562433       315.896559626     -1263.144038868     -1258.992998709        13.364647113
        80           80.000000         3.960581689       309.031699602     -1263.026272899     -1258.961587913        13.975612722
        81           81.000000         3.969513002       309.728581840     -1263.097855406     -1259.022622133        14.610746618
        82           82.000000         3.980866995       310.614498110     -1263.061730955     -1258.973516318        15.232282937
        83           83.000000         4.045859909       315.685690229     -1263.120131789     -1258.965271785        15.222254574
        84           84.000000         4.067877281       317.403636309     -1263.137173724     -1258.958606012        13.980158933
        85           85.000000         3.971078693       309.850747737     -1263.015659421     -1258.932194009        14.631186873
        86           86.000000         3.985127723       310.946949230     -1263.060524701     -1258.961324846        13.356477033
        87           87.000000         3.996059551       311.799925295     -1263.078651388     -1258.966823125        13.349675417
        88           88.000000         3.947479622       308.009386665     -1263.021057106     -1258.956114218        13.317352045
        89           89.000000         3.954135043       308.528688193     -1263.043763623     -1258.970481395        13.323355936
        90           90.000000         3.933373323       306.908716646     -1263.003340179     -1258.949141740        13.370616276
        91           91.000000         3.996291267       311.818005404     -1263.073146994     -1258.954348644        13.993007708
        92           92.000000         4.057884788       316.623953579     -1263.156231907     -1258.974126263        14.576105796
        93           93.000000         3.950337855       308.232405549     -1263.024883654     -1258.948607944        14.628836446
        94           94.000000         3.905235566       304.713216130     -1263.016536185     -1258.983682383        14.598042820
        95           95.000000         3.915288635       305.497625435     -1263.028161334     -1258.983595278        13.968725409
        96           96.000000         3.933522818       306.920381250     -1263.040356587     -1258.975904371        13.375511970
        97           97.000000         3.975878514       310.225262631     -1263.073267666     -1258.964804524        13.347466622
        98           98.000000         3.905308098       304.718875619     -1262.989415679     -1258.949878321        13.402596548
        99           99.000000         3.915753980       305.533934860     -1262.999740718     -1258.948139881        13.361664679
       100          100.000000         3.995886454       311.786419095     -1263.099221302     -1258.965864681        13.328896429
       101          101.000000         3.950429664       308.239569100     -1263.037842661     -1258.948314306        13.352011029
       102          102.000000         3.912051493       305.245041456     -1263.013203452     -1258.960450122        14.025589079
       103          103.000000         3.859962661       301.180714128     -1262.959618935     -1258.957386342        13.351468556
       104          104.000000         3.873663657       302.249759653     -1262.941757786     -1258.924288943        13.384890396
       105          105.000000         3.990913092       311.398363379     -1263.124088518     -1258.987830657        14.042887975
       106          106.000000         3.958859075       308.897289467     -1263.075598917     -1258.969843075        13.330818132
       107          107.000000         3.905215301       304.711634960     -1263.083408543     -1259.029769022        14.609211277
       108          108.000000         3.919215839       305.804052791     -1263.072161844     -1259.003018609        13.955649976
       109          109.000000         3.908064477       304.933947145     -1263.056840455     -1258.997360905        13.992217712
       110          110.000000         3.941135327       307.514361289     -1263.171728946     -1259.077703307        15.233967394
       111          111.000000         3.894837366       303.901877413     -1263.121195217     -1259.072007707        15.194290161
       112          112.000000         3.847639448       300.219172684     -1263.023994534     -1259.020582601        15.217238262
       113          113.000000         3.943032959       307.662427582     -1263.182402702     -1259.082192028        15.298571676
       114          114.000000         3.952212067       308.378644432     -1263.195163420     -1259.084361793        15.202401046
       115          115.000000         3.906193925       304.787993915     -1263.159835411     -1259.093656215        15.218539048
       116          116.000000         3.843109933       299.865748922     -1263.104466915     -1259.100012998        14.569777146
       117          117.000000         3.766845324       293.915061988     -1263.011788667     -1259.082294405        15.291010026
       118          118.000000         3.841055267       299.705429791     -1263.092056182     -1259.087087303        15.192984793
       119          119.000000         3.870381102       301.993632251     -1263.136424288     -1259.100877244        14.593391180
       120          120.000000         3.827019268       298.610245064     -1263.073125703     -1259.079714273        15.258042153
       121          121.000000         3.868580514       301.853138026     -1263.132187342     -1259.096016901        14.585357882
       122          122.000000         3.861776476       301.322240397     -1263.149066836     -1259.118519890        15.241404019
       123          123.000000         3.862965932       301.415049938     -1263.155204562     -1259.122310608        15.247061677
       124          124.000000         3.843555765       299.900535796     -1263.144013039     -1259.129396472        14.610803053
       125          125.000000         3.761096783       293.466521465     -1263.038453517     -1259.105204166        15.230510917
       126          126.000000         3.827204165       298.624672041     -1263.132020645     -1259.131611014        27.820184331
       127          127.000000         3.887485087       303.328202254     -1263.202614819     -1259.140880582        20.944775403
       128          128.000000         3.884052784       303.060390477     -1263.181963535     -1259.122625911        24.455054108
       129          129.000000         3.924295128       306.200373710     -1263.258866016     -1259.158258830        20.999305580
       130          130.000000         3.900885886       304.373824337     -1263.208523877     -1259.130304088        25.148715187
       131          131.000000         3.917986619       305.708140609     -1263.261217492     -1259.164885379        26.966035075
       132          132.000000         3.917101190       305.639053428     -1263.246097174     -1259.149643939        20.562701255
       133          133.000000         3.816803959       297.813176772     -1263.108878678     -1259.111738068        19.283361174
       134          134.000000         3.843555519       299.900516587     -1263.163707110     -1259.138862551        19.663020663
       135          135.000000         3.897133196       304.081013776     -1263.222367209     -1259.143002138        20.258808948
       136          136.000000         3.898987421       304.225693132     -1263.228778382     -1259.146619819        20.236686923
       137          137.000000         3.905945557       304.768614544     -1263.253488708     -1259.163439876        19.008731101
       138          138.000000         3.827884493       298.677755888     -1263.118893087     -1259.105990308        18.927492712
       139          139.000000         3.827928967       298.681226058     -1263.072942656     -1259.059109267        17.870357025
       140          140.000000         3.880706706       302.799306549     -1263.158439700     -1259.090956131        17.129349835
       141          141.000000         3.823733178       298.353841837     -1263.084324144     -1259.072954855        15.230801892
       142          142.000000         3.830635712       298.892424843     -1263.086226644     -1259.067120416        15.214070287
       143          143.000000         3.858187331       301.042190733     -1263.079538811     -1259.032061266        14.653150592
       144          144.000000         3.890432482       303.558178238     -1263.110137632     -1259.029601805        14.570995882
       145          145.000000         3.951479648       308.321496041     -1263.152778886     -1259.010378507        13.981541120
       146          146.000000         3.865732362       301.630905715     -1263.045886901     -1258.988416368        13.966489512
       147          147.000000         3.826630932       298.579944449     -1263.006196700     -1258.987032703        13.935154315
       148          148.000000         3.894861865       303.903789027     -1263.072627357     -1258.984449990        13.339351218
       149          149.000000         3.908776536       304.989506902     -1263.096127280     -1258.993249909        13.998326126
       150          150.000000         3.951556385       308.327483637     -1263.191521382     -1259.045073395        13.994768083
       151          151.000000         3.932983470       306.878297579     -1263.101789831     -1258.973115251        13.336367764
       152          152.000000         3.910444595       305.119660311     -1263.065311823     -1258.958376724        14.016450077
       153          153.000000         3.982693771       310.757035666     -1263.144883974     -1258.964893080        13.369073864
       154          154.000000         3.931935752       306.796547461     -1263.074907681     -1258.944854533        13.357656512
       155          155.000000         3.870362138       301.992152532     -1262.916270365     -1258.846978260        12.713517077
       156          156.000000         3.887617587       303.338540850     -1262.938059815     -1258.850710357        13.343928970
       157          157.000000         3.900840738       304.370301591     -1262.917420076     -1258.816046795        12.691010829
       158          158.000000         3.988407022       311.202822570     -1263.028088415     -1258.838337273        12.739142612
       159          159.000000         3.978904517       310.461372108     -1263.015311829     -1258.834229303        12.698608100
       160          160.000000         3.905829593       304.759566247     -1262.903635889     -1258.794790024        12.723543506
       161          161.000000         3.947591967       308.018152561     -1262.967834064     -1258.816388184        12.724077579
       162          162.000000         3.932169849       306.814813373     -1262.990141888     -1258.853270709        12.789546467
       163          163.000000         3.908047751       304.932642103     -1262.965075143     -1258.851477776        13.320779126
       164          164.000000         3.905251935       304.714493402     -1262.967076323     -1258.855428285        12.733095564
       165          165.000000         3.870690526       302.017775652     -1262.910277090     -1258.832348640        12.750161320
       166          166.000000         3.956359374       308.702245663     -1263.015707374     -1258.851266288        12.747890599
       167          167.000000         3.980493522       310.585357131     -1263.032775593     -1258.843335198        12.709126286
       168          168.000000         3.894795476       303.898608845     -1262.936516175     -1258.831902237        12.724502224
       169          169.000000         3.893439633       303.792816718     -1262.954746269     -1258.850625532        12.729907922
       170          170.000000         3.860602964       301.230674995     -1262.898535633     -1258.826395042        12.795156073
       171          171.000000         3.868394570       301.838629404     -1262.828486381     -1258.747707315        12.732792269
       172          172.000000         3.887137593       303.301088415     -1262.866694304     -1258.766328257        12.814111467
       173          173.000000         3.800409910       296.534000773     -1262.763383514     -1258.748913263        12.709515132
       174          174.000000         3.835636502       299.282620661     -1262.744156534     -1258.693649378        12.110857502
       175          175.000000         3.872870609       302.187880668     -1262.789205996     -1258.700658419        12.731863376
       176          176.000000         3.828696674       298.741127756     -1262.730397591     -1258.685224396        12.088926390
       177          177.000000         3.827085073       298.615379646     -1262.727765629     -1258.683420716        12.108831979
       178          178.000000         3.763452752       293.650350302     -1262.654639338     -1258.673164030        12.741036471
       179          179.000000         3.784354731       295.281265843     -1262.677422028     -1258.674308795        12.075361714
       180          180.000000         3.862263686       301.360255901     -1262.713495198     -1258.631746286        12.106303621
       181          181.000000         3.814373160       297.623509152     -1262.615789494     -1258.581209120        12.108147878
       182          182.000000         3.831490461       298.959118190     -1262.659758902     -1258.607354286        12.099174678
       183          183.000000         3.849109656       300.333888405     -1262.696989495     -1258.626265643        12.092748851
       184          184.000000         3.831447685       298.955780469     -1262.663477876     -1258.609723206        12.083675213
       185          185.000000         3.877443136       302.544660463     -1262.713384961     -1258.612947632        12.107608099
       186          186.000000         3.823393265       298.327319500     -1262.642445122     -1258.595373972        12.093120527
       187          187.000000         3.824697132       298.429056132     -1262.629342313     -1258.580297791        12.094085656
       188          188.000000         3.906753976       304.831692915     -1262.743604176     -1258.611834480        12.771980751
       189          189.000000         3.882765699       302.959963324     -1262.700963820     -1258.592505533        12.097095814
       190          190.000000         3.902645293       304.511105368     -1262.733579965     -1258.604563024        12.105642781
       191          191.000000         3.884870179       303.124169250     -1262.716654466     -1258.604728799        12.135123622
       192          192.000000         3.843229973       299.875115309     -1262.647652109     -1258.576686590        12.158757333
       193          193.000000         3.905391782       304.725405239     -1262.730670183     -1258.596864599        12.738194954
       194          194.000000         3.868822938       301.872053639     -1262.685493734     -1258.587572549        12.750157882
       195          195.000000         3.868347663       301.834969429     -1262.680309510     -1258.582182354        12.157571793
       196          196.000000         3.941611588       307.551522420     -1262.777489332     -1258.605409541        12.109022245
       197          197.000000         3.912258243       305.261173479     -1262.710566015     -1258.567135443        12.159742244
       198          198.000000         3.930215646       306.662333030     -1262.746249303     -1258.584148793        12.794214785
       199          199.000000         3.900193359       304.319788676     -1262.716285998     -1258.583485686        12.137421183
       200          200.000000         3.848387865       300.277569321     -1262.663327168     -1258.581612597        12.115422390
       201          201.000000         3.922186810       306.035868269     -1262.761637550     -1258.605403657        12.493950397
       202          202.000000         3.888814975       303.431969256     -1262.700288448     -1258.576694549        12.098704875
       203          203.000000         3.869200822       301.901538735     -1262.676265145     -1258.571554471        12.132126529
       204          204.000000         3.920509081       305.904960344     -1262.740673859     -1258.583919377        12.102119699
       205          205.000000         3.903191304       304.553708871     -1262.737633450     -1258.597449412        12.719741169
       206          206.000000         3.960835799       309.051527050     -1262.814894724     -1258.616306179        12.776779272
       207          207.000000         3.928618026       306.537675808     -1262.682502715     -1258.515353071        12.160201386
       208          208.000000         3.830843081       298.908605135     -1262.550740379     -1258.480589356        12.754799817
       209          209.000000         3.888257608       303.388479639     -1262.629472290     -1258.501138239        12.148841269
       210          210.000000         3.897027383       304.072757528     -1262.650015417     -1258.512133754        12.105294064
       211          211.000000         3.907430368       304.884469675     -1262.674855367     -1258.525785101        12.155988224
       212          212.000000         3.923056999       306.103766405     -1262.734550313     -1258.569057039        12.104578346
       213          213.000000         3.836615759       299.359028991     -1262.621325570     -1258.541475835        12.167429287
       214          214.000000         3.875750028       302.412552594     -1262.690131460     -1258.570357689        12.116944056
       215          215.000000         3.881779379       302.883003877     -1262.710122755     -1258.583524349        12.094900168
       216          216.000000         3.801403793       296.611550328     -1262.627692973     -1258.580681658        12.148073532
       217          217.000000         3.830317355       298.867584399     -1262.681239636     -1258.604541747        12.100344356
       218          218.000000         3.803763150       296.795643515     -1262.651668307     -1258.600759759        12.106791437
       219          219.000000         3.822159381       298.231043449     -1262.627902844     -1258.557845078        12.114859674
       220          220.000000         3.852762465       300.618905555     -1262.784453263     -1258.683042724        12.727915730
       221          221.000000         3.750645910       292.651072792     -1262.678259752     -1258.678228506        12.750277877
       222          222.000000         3.782472803       295.134424919     -1262.691842047     -1258.659272304        12.138628691
       223          223.000000         3.817608621       297.875961961     -1262.709492120     -1258.641084348        12.126641840
       224          224.000000         3.786142636       295.420770410     -1262.675225339     -1258.637591354        12.195046011
       225          225.000000         3.836423008       299.343989290     -1262.751223950     -1258.662628553        12.178702276
       226          226.000000         3.789836120       295.708961319     -1262.681291258     -1258.638608536        12.128391471
       227          227.000000         3.804748384       296.872518203     -1262.681306837     -1258.623052799        12.164549418