#     Step Nr.          Time[fs]        Kin.[a.u.]          Temp[K]            Pot.[a.u.]   
         0            0.000000         3.844830508       300.000000000     -1262.748289772  
         1            1.000000         3.601178012       280.988564101     -1262.427083860  
         2            2.000000         3.549769288       276.977303444     -1262.360031172  
         3            3.000000         3.715371310       289.898707009     -1262.491688697  
         4            4.000000         3.759204458       293.318869284     -1262.342957506  
         5            5.000000         4.058152400       316.644834481     -1262.596413502  
         6            6.000000         4.070876004       317.637617214     -1262.472917164  
         7            7.000000         4.152118545       323.976716479     -1262.381599890  
         8            8.000000         4.566881291       356.339345635     -1262.748970813  
         9            9.000000         4.563624350       356.085216764     -1262.520238746  
        10           10.000000         4.617262206       360.270409545     -1262.454599883  
        11           11.000000         4.718931541       368.203347140     -1262.469070593  
        12           12.000000         4.772212257       372.360673416     -1262.350187997  
        13           13.000000         5.176104223       403.875089843     -1262.731012028  
        14           14.000000         5.183797313       404.475357354     -1262.661486000  
        15           15.000000         5.079131051       396.308579007     -1262.464530447  
        16           16.000000         5.256605621       410.156360083     -1262.736322315  
        17           17.000000         5.138486029       400.939860798     -1262.584490636  
        18           18.000000         5.125128765       399.897635627     -1262.622817788  
        19           19.000000         4.991980922       389.508529264     -1262.554244611  
        20           20.000000         4.737509076       369.652893616     -1262.302107533  
        21           21.000000         4.966276279       387.502877025     -1262.720838792  
        22           22.000000         4.898950684       382.249673137     -1262.734117240  
        23           23.000000         4.652492839       363.019344737     -1262.606832037  
        24           24.000000         4.576742939       357.108818933     -1262.695198071  
        25           25.000000         4.330532429       337.897789230     -1262.473419298  
        26           26.000000         4.390419407       342.570581269     -1262.696412989  
        27           27.000000         4.304177357       335.841386038     -1262.682886168  
        28           28.000000         3.966434833       309.488402006     -1262.367390153  
        29           29.000000         4.090217342       319.146760807     -1262.641973861  
        30           30.000000         4.092966069       319.361235315     -1262.684382053  
        31           31.000000         4.044226928       315.558273850     -1262.680889254  
        32           32.000000         4.028954488       314.366613546     -1262.729689361  
        33           33.000000         3.758001591       293.225013423     -1262.355309347  
        34           34.000000         3.956168525       308.687354351     -1262.618469061  
        35           35.000000         4.143825693       323.329651371     -1262.752667226  
        36           36.000000         3.999914933       312.100748617     -1262.471647890  
        37           37.000000         4.128164144       322.107630125     -1262.561902879  
        38           38.000000         4.136337976       322.745408411     -1262.483942942  
        39           39.000000         4.283518306       334.229425484     -1262.531291766  
        40           40.000000         4.479755614       349.541203758     -1262.697742617  
        41           41.000000         4.243877070       331.136344799     -1262.262646253  
        42           42.000000         4.395920690       342.999829005     -1262.346227643  
        43           43.000000         4.670894879       364.455197883     -1262.574617265  
        44           44.000000         4.731111453       369.153707258     -1262.525654739  
        45           45.000000         4.892171664       381.720727598     -1262.664069417  
        46           46.000000         4.719965215       368.284001423     -1262.339080393  
        47           47.000000         4.769160746       372.122573582     -1262.351542450  
        48           48.000000         5.024848042       392.073047009     -1262.680032946  
        49           49.000000         4.807106447       375.083357014     -1262.397519404  
        50           50.000000         4.760876215       371.476157758     -1262.408737482  
        51           51.000000         4.755230577       371.035646403     -1262.446630230  
        52           52.000000         4.737307456       369.637161857     -1262.499116575  
        53           53.000000         4.906543292       382.842100420     -1262.804366514  
        54           54.000000         4.591350453       358.248597167     -1262.527591513  
        55           55.000000         4.390795366       342.599916193     -1262.379106687  
        56           56.000000         4.513241474       352.153999817     -1262.685729065  
        57           57.000000         4.368332295       340.847193537     -1262.530262637  
        58           58.000000         4.352173389       339.586365083     -1262.626969796  
        59           59.000000         4.171307472       325.473967951     -1262.514362840  
        60           60.000000         4.010673030       312.940168953     -1262.365780679  
        61           61.000000         4.266103047       332.870567708     -1262.789083668  
        62           62.000000         4.116940795       321.231907546     -1262.625751693  
        63           63.000000         3.943790233       307.721515226     -1262.444330919  
        64           64.000000         3.990718527       311.383182075     -1262.541755540  
        65           65.000000         3.946155655       307.906081649     -1262.413511411  
        66           66.000000         4.196421494       327.433535915     -1262.721363740  
        67           67.000000         4.152861643       324.034698077     -1262.639888358  
        68           68.000000         3.964270195       309.319502110     -1262.337449998  
        69           69.000000         4.221767143       329.411176956     -1262.615458221  
        70           70.000000         4.267743142       332.998539128     -1262.520087282  
        71           71.000000         4.315223498       336.703281589     -1262.496142393  
        72           72.000000         4.362928388       340.425543726     -1262.490607887  
        73           73.000000         4.246287736       331.324441462     -1262.230920975  
        74           74.000000         4.575675308       357.025515055     -1262.532700529  
        75           75.000000         4.703649244       367.010917654     -1262.621799771  
        76           76.000000         4.559226593       355.742073696     -1262.369591836  
        77           77.000000         4.674466760       364.733900466     -1262.519565724  
        78           78.000000         4.628419252       361.140958672     -1262.455037975  
        79           79.000000         4.743578682       370.126485801     -1262.573404879  
        80           80.000000         4.792903480       373.975144293     -1262.568266361  
        81           81.000000         4.512076229       352.063079456     -1262.189620917  
        82           82.000000         4.651342412       362.929580515     -1262.410206586  
        83           83.000000         4.722318619       368.467630158     -1262.511190683  
        84           84.000000         4.597065281       358.694507138     -1262.385512489  
        85           85.000000         4.586880596       357.899828293     -1262.462162988  
        86           86.000000         4.337215382       338.419238951     -1262.191967463  
        87           87.000000         4.388386132       342.411931258     -1262.325540767  
        88           88.000000         4.482268405       349.737268970     -1262.525979492  
        89           89.000000         4.181768150       326.290181682     -1262.193439752  
        90           90.000000         4.180618218       326.200456125     -1262.300490343  
        91           91.000000         4.164310447       324.928012173     -1262.333784787  
        92           92.000000         4.155152481       324.213444974     -1262.337889697  
        93           93.000000         4.269149982       333.108310433     -1262.574717116  
        94           94.000000         3.990114575       311.336057556     -1262.253331842  
        95           95.000000         4.003370526       312.370377646     -1262.305804991  
        96           96.000000         4.197618042       327.526898787     -1262.564043216  
        97           97.000000         4.081552066       318.470636648     -1262.386101730  
        98           98.000000         4.124001622       321.782841671     -1262.462559535  
        99           99.000000         4.022666406       313.875974335     -1262.314206511  
       100          100.000000         4.042280825       315.406425569     -1262.327014143  
       101          101.000000         4.320591989       337.122168002     -1262.643302977  
       102          102.000000         4.160983583       324.668427458     -1262.378161518  
       103          103.000000         4.130185861       322.265378325     -1262.307717492  
       104          104.000000         4.268089888       333.025594674     -1262.488835052  
       105          105.000000         4.284890292       334.336477198     -1262.430758324  
       106          106.000000         4.494294556       350.675631612     -1262.673196144  
       107          107.000000         4.378240488       341.620298641     -1262.465462283  
       108          108.000000         4.291971449       334.888997587     -1262.305091753  
       109          109.000000         4.558915308       355.717785038     -1262.619284835  
       110          110.000000         4.510421047       351.933930782     -1262.496468199  
       111          111.000000         4.514996089       352.290906909     -1262.524304461  
       112          112.000000         4.508702222       351.799816341     -1262.531052062  
       113          113.000000         4.420197807       344.894095947     -1262.382166339  
       114          114.000000         4.669652991       364.358297254     -1262.725725190  
       115          115.000000         4.576132569       357.061193642     -1262.612149211  
       116          116.000000         4.377366408       341.552096947     -1262.352839756  
       117          117.000000         4.470428960       348.813474364     -1262.530510684  
       118          118.000000         4.373070644       341.216912023     -1262.421634056  
       119          119.000000         4.421921369       345.028580040     -1262.535800633  
       120          120.000000         4.349218656       339.355816609     -1262.557001609  
       121          121.000000         4.109183829       320.626656008     -1262.305299887  
       122          122.000000         4.292331775       334.917112633     -1262.612497868  
       123          123.000000         4.268922004       333.090522027     -1262.616631205  
       124          124.000000         4.118487748       321.352611475     -1262.490825767  
       125          125.000000         4.109459843       320.648192474     -1262.535431445  
       126          126.000000         3.942534021       307.623497027     -1262.329543221  
       127          127.000000         4.089740051       319.109519274     -1262.586906107  
       128          128.000000         4.146269556       323.520338284     -1262.680737051  
       129          129.000000         3.926819232       306.397321578     -1262.388703446  
       130          130.000000         4.054047888       316.324572378     -1262.553721495  
       131          131.000000         4.085910706       318.810727564     -1262.573519515  
       132          132.000000         4.114919642       321.074203410     -1262.655057416  
       133          133.000000         4.195788028       327.384108528     -1262.755826248  
       134          134.000000         3.990301678       311.350656657     -1262.402219370  
       135          135.000000         4.143566043       323.309391696     -1262.562709793  
       136          136.000000         4.330308268       337.880298632     -1262.711960638  
       137          137.000000         4.241748035       330.970222925     -1262.524894435  
       138          138.000000         4.350580851       339.462104361     -1262.657478113  
       139          139.000000         4.304021302       335.829209565     -1262.549453197  
       140          140.000000         4.377069616       341.528939154     -1262.586870604  
       141          141.000000         4.561038519       355.883452545     -1262.786363211  
       142          142.000000         4.360980905       340.273587757     -1262.479195298  
       143          143.000000         4.402532324       343.515713982     -1262.545119793  
       144          144.000000         4.511198310       351.994578226     -1262.674400217  
       145          145.000000         4.464008746       348.312525333     -1262.585889521  
       146          146.000000         4.560593784       355.848751281     -1262.754682750  
       147          147.000000         4.371867445       341.123030213     -1262.538202157  
       148          148.000000         4.318572117       336.964563809     -1262.484755779  
       149          149.000000         4.475970102       349.245832181     -1262.705252934  
       150          150.000000         4.287026165       334.503132608     -1262.488488031  
       151          151.000000         4.250650472       331.664852006     -1262.529968588  
       152          152.000000         4.211115013       328.580024802     -1262.531085496  
       153          153.000000         4.119595717       321.439062802     -1262.457213539  
       154          154.000000         4.262559763       332.594096472     -1262.688108306  
       155          155.000000         4.064286662       317.123471600     -1262.461230573  
       156          156.000000         3.929669752       306.619738620     -1262.345510935  
       157          157.000000         4.050601024       316.055624426     -1262.482893684  
       158          158.000000         3.955242789       308.615122055     -1262.373568822  
       159          159.000000         4.016547747       313.398554644     -1262.504817306  
       160          160.000000         3.982546442       310.745540040     -1262.520935860  
       161          161.000000         3.899073071       304.232376100     -1262.385254014  
       162          162.000000         4.140847632       323.097282653     -1262.674801430  
       163          163.000000         4.088447466       319.008662947     -1262.555974467  
       164          164.000000         4.021479261       313.783345125     -1262.480691721  
       165          165.000000         4.129243124       322.191819542     -1262.593631506  
       166          166.000000         4.100835003       319.975223406     -1262.515315048  
       167          167.000000         4.304640512       335.877524618     -1262.734123382  
       168          168.000000         4.316541319       336.806107065     -1262.728879229  
       169          169.000000         4.182874240       326.376486376     -1262.511598200  
       170          170.000000         4.391278595       342.637620962     -1262.753838208  
       171          171.000000         4.388626474       342.430684351     -1262.683665410  
       172          172.000000         4.377385964       341.553622795     -1262.625824531  
       173          173.000000         4.416015000       344.567724649     -1262.729349092  
       174          174.000000         4.281280583       334.054823018     -1262.532294176  
       175          175.000000         4.463042701       348.237147922     -1262.768027710  
       176          176.000000         4.509357597       351.850953162     -1262.831930001  
       177          177.000000         4.339432534       338.592236320     -1262.610190617  
       178          178.000000         4.390339635       342.564356936     -1262.728451476  
       179          179.000000         4.295935000       335.198260959     -1262.617071285  
       180          180.000000         4.321388890       337.184347703     -1262.641838639  
       181          181.000000         4.360418688       340.229719792     -1262.785949913  
       182          182.000000         4.128532084       322.136339279     -1262.512687229  
       183          183.000000         4.224722738       329.641792706     -1262.687784896  
       184          184.000000         4.278804313       333.861607457     -1262.778031202  
       185          185.000000         4.170524346       325.412863074     -1262.679504917  
       186          186.000000         4.198613887       327.604601363     -1262.797274301  
       187          187.000000         4.032907954       314.675089958     -1262.605714633  
       188          188.000000         4.081609731       318.475136107     -1262.675610911  
       189          189.000000         4.217027663       329.041370283     -1262.821569055  
       190          190.000000         4.043451362       315.497758877     -1262.595365735  
       191          191.000000         4.077772599       318.175736744     -1262.643313412  
       192          192.000000         4.084287818       318.684098787     -1262.633159865  
       193          193.000000         4.058465290       316.669248302     -1262.576658340  
       194          194.000000         4.173040205       325.609167670     -1262.734120341  
       195          195.000000         4.001523324       312.226246316     -1262.494372781  
       196          196.000000         4.014442656       313.234301050     -1262.511442987  
       197          197.000000         4.195937775       327.395792822     -1262.721206243  
       198          198.000000         4.152491971       324.005853771     -1262.565502092  
       199          199.000000         4.246349871       331.329289713     -1262.682648013  
       200          200.000000         4.198723684       327.613168537     -1262.592228254  
       201          201.000000         4.164081229       324.910126987     -1262.559446619  
       202          202.000000         4.357010088       339.963757425     -1262.787381204  
       203          203.000000         4.246789552       331.363596595     -1262.670205570  
       204          204.000000         4.215643667       328.933381389     -1262.642416599  
       205          205.000000         4.298322946       335.384584848     -1262.753162886  
       206          206.000000         4.247201592       331.395746769     -1262.611767601  
       207          207.000000         4.381295385       341.858662628     -1262.810518855  
       208          208.000000         4.303132405       335.759851735     -1262.721401389  
       209          209.000000         4.179419580       326.106930121     -1262.528860166  
       210          210.000000         4.310562987       336.339636608     -1262.743419696  
       211          211.000000         4.219146206       329.206673484     -1262.662681250  
       212          212.000000         4.194128886       327.254650897     -1262.624337193  
       213          213.000000         4.194938087       327.317790307     -1262.706832052  
       214          214.000000         4.079797579       318.333739569     -1262.562309306  
       215          215.000000         4.223221511       329.524656718     -1262.799194746  
       216          216.000000         4.186278203       326.642086889     -1262.758691445  
       217          217.000000         4.069803747       317.553952389     -1262.615269473  
       218          218.000000         4.159765135       324.573355774     -1262.759956658  
       219          219.000000         4.089777027       319.112404441     -1262.653446692  
       220          220.000000         4.140320437       323.056147314     -1262.735589620  
       221          221.000000         4.147611457       323.625042649     -1262.743648902  
       222          222.000000         3.994979351       311.715640683     -1262.521171572  
       223          223.000000         4.135115576       322.650028466     -1262.720030979  
       224          224.000000         4.139658236       323.004477864     -1262.719519813  
       225          225.000000         4.058475075       316.670011788     -1262.641626739  
       226          226.000000         4.123039662       321.707782926     -1262.748617551  
       227          227.000000         4.025140023       314.068982827     -1262.611151712  
       228          228.000000         4.119808212       321.455643062     -1262.715350597  
       229          229.000000         4.200191251       327.727678096     -1262.820824978  
       230          230.000000         4.069224844       317.508782399     -1262.624519293  
       231          231.000000         4.172600075       325.574825715     -1262.776169348  
       232          232.000000         4.186288216       326.642868165     -1262.759032295  
       233          233.000000         4.174564065       325.728069634     -1262.682425811  
       234          234.000000         4.243417318       331.100471834     -1262.816677149  
       235          235.000000         4.088409055       319.005665890     -1262.613032381  
       236          236.000000         4.148831033       323.720202270     -1262.690593483  
       237          237.000000         4.259737244       332.373864222     -1262.826561930  
       238          238.000000         4.180474655       326.189254290     -1262.716019557  
       239          239.000000         4.249369390       331.564893236     -1262.827165857  
       240          240.000000         4.185317333       326.567113253     -1262.703403472  
       241          241.000000         4.172591574       325.574162371     -1262.678598884  
       242          242.000000         4.280871889       334.022933876     -1262.911226988  
       243          243.000000         4.122529762       321.667997037     -1262.705039714  
       244          244.000000         4.114320961       321.027490185     -1262.714059387  
       245          245.000000         4.158552773       324.478759010     -1262.809908172  
       246          246.000000         4.095496343       319.558664645     -1262.722945846  
       247          247.000000         4.195648892       327.373252158     -1262.922611536  
       248          248.000000         4.106121422       320.387705992     -1262.819637352  
       249          249.000000         4.052156639       316.177004190     -1262.765113825  
       250          250.000000         4.161141217       324.680727119     -1262.935167143  
       251          251.000000         4.045848751       315.684819587     -1262.740057494  
       252          252.000000         4.048216164       315.869541352     -1262.752313449  
       253          253.000000         4.057418231       316.587549631     -1262.770969576  
       254          254.000000         3.989650743       311.299866203     -1262.672674191  
       255          255.000000         4.114698386       321.056939486     -1262.840365652  
       256          256.000000         4.033695581       314.736546037     -1262.714859524  
       257          257.000000         3.959875735       308.976616252     -1262.621308931  
       258          258.000000         4.046062062       315.701463565     -1262.811143433  
       259          259.000000         3.965034489       309.379137567     -1262.693379202  
       260          260.000000         4.016322723       313.380996754     -1262.739656816  
       261          261.000000         4.023512764       313.942012947     -1262.759721446  
       262          262.000000         3.939002034       307.347907221     -1262.622493522  
       263          263.000000         4.074050699       317.885328644     -1262.828205897  
       264          264.000000         4.027493703       314.252633029     -1262.753151326  
       265          265.000000         3.959677417       308.961142138     -1262.641535280  
       266          266.000000         4.019954270       313.664354841     -1262.730248242  
       267          267.000000         3.956913220       308.745460539     -1262.610282898  
       268          268.000000         4.068052781       317.417329984     -1262.729352059  
       269          269.000000         4.120006357       321.471103701     -1262.770975100  
       270          270.000000         4.043667723       315.514640826     -1262.672736994  
       271          271.000000         4.159061406       324.518446023     -1262.848104823  
       272          272.000000         4.124939740       321.856040003     -1262.780285757  
       273          273.000000         4.088184689       318.988159308     -1262.735185654  
       274          274.000000         4.125825811       321.925177360     -1262.859239917  
       275          275.000000         4.019748472       313.648297109     -1262.724403811  
       276          276.000000         4.115052896       321.084600783     -1262.845340119  
       277          277.000000         4.166700545       325.114503934     -1262.962228979  
       278          278.000000         4.077170699       318.128772426     -1262.811299465  
       279          279.000000         4.137549033       322.839903403     -1262.919104946  
       280          280.000000         4.057742846       316.612878333     -1262.829477975  
       281          281.000000         4.026921065       314.207951958     -1262.812257308  
       282          282.000000         4.064279647       317.122924273     -1262.900394585  
       283          283.000000         3.924257914       306.197470008     -1262.695487707  
       284          284.000000         3.975681731       310.209908255     -1262.785311051  
       285          285.000000         4.014127799       313.209733703     -1262.862728475  
       286          286.000000         3.947313297       307.996408855     -1262.752289005  
       287          287.000000         4.009658833       312.861034429     -1262.875376820  
       288          288.000000         3.917755500       305.690107124     -1262.772926316  
       289          289.000000         3.907325672       304.876300531     -1262.751630114  
       290          290.000000         4.005382158       312.527338918     -1262.881686479  
       291          291.000000         3.930425100       306.678676065     -1262.765433005  
       292          292.000000         3.993896332       311.631136170     -1262.854413198  
       293          293.000000         4.018145047       313.523186943     -1262.884030168  
       294          294.000000         3.974656018       310.129875160     -1262.765585417  
       295          295.000000         4.071082438       317.653724628     -1262.878280625  
       296          296.000000         4.006367409       312.604214983     -1262.759143977  
       297          297.000000         4.017163510       313.446600686     -1262.705554377  
       298          298.000000         4.125769364       321.920772964     -1262.834168165  
       299          299.000000         4.073494951       317.841965345     -1262.730664808  
       300          300.000000         4.138065031       322.880165119     -1262.769906968  
       301          301.000000         4.135950948       322.715209848     -1262.755611710  
       302          302.000000         4.074972535       317.957256564     -1262.677648188  
       303          303.000000         4.155448205       324.236519379     -1262.784162490  
       304          304.000000         4.065100424       317.186966871     -1262.654721173  
       305          305.000000         4.041137708       315.317231735     -1262.619724481  
       306          306.000000         4.123532956       321.746273096     -1262.748006558  
       307          307.000000         4.073831531       317.868227634     -1262.691790108  
       308          308.000000         4.137908899       322.867982628     -1262.711849429  
       309          309.000000         4.101730589       320.045103174     -1262.683267964  
       310          310.000000         4.011501392       313.004803436     -1262.566991563  
       311          311.000000         4.087346635       318.922768603     -1262.731696495  
       312          312.000000         4.008959028       312.806430845     -1262.638139692  
       313          313.000000         3.969687700       309.742212935     -1262.613085350  
       314          314.000000         4.003219187       312.358569116     -1262.698106205  
       315          315.000000         3.931167336       306.736590395     -1262.600698801  
       316          316.000000         3.999829850       312.094109865     -1262.715803068  
       317          317.000000         3.959832611       308.973251451     -1262.681732221  
       318          318.000000         3.859956640       301.180244326     -1262.587460728  
       319          319.000000         3.941765351       307.563520109     -1262.718252796  
       320          320.000000         3.909741683       305.064814245     -1262.701075611  