#     Step Nr.          Time[fs]        Kin.[a.u.]          Temp[K]            Pot.[a.u.]        Cons Qty[a.u.]        UsedTime[s]
         0            0.000000         3.844830508       300.000000000     -1262.508847560     -1258.663542029         0.000000000
         1            1.000000         3.904237102       304.635309171     -1262.604792086     -1258.699217124        44.432618435
         2            2.000000         3.825033533       298.455304465     -1262.527540935     -1258.700300418        11.998482075
         3            3.000000         3.762788120       293.598491196     -1262.444836029     -1258.678991110        12.080213990
         4            4.000000         3.885371178       303.163260588     -1262.600433070     -1258.711160230        12.041107774
         5            5.000000         3.808115591       297.135250745     -1262.520993995     -1258.708123691        12.059245229
         6            6.000000         3.805824495       296.956483780     -1262.527048007     -1258.715629928        12.079880554
         7            7.000000         3.844853668       300.001807083     -1262.587475601     -1258.736192115        12.051385675
         8            8.000000         3.780979672       295.017920626     -1262.489722422     -1258.701481887        12.089398358
         9            9.000000         3.869895997       301.955781031     -1262.597857387     -1258.719875623        12.090267044
        10           10.000000         3.799467363       296.460456827     -1262.510083269     -1258.701702136        12.046478562
        11           11.000000         3.726561602       290.771850176     -1262.404066113     -1258.667787052        12.068704836
        12           12.000000         3.844890537       300.004683875     -1262.567036426     -1258.711638481        12.064393539
        13           13.000000         3.810521695       297.322991513     -1262.510862497     -1258.689038345        12.066210385
        14           14.000000         3.851080127       300.487638054     -1262.575644221     -1258.712470830        12.073780347
        15           15.000000         3.865143690       301.584973480     -1262.638362238     -1258.760328142        12.060794234
        16           16.000000         3.781410707       295.051552896     -1262.515673503     -1258.720580712        12.058038596
        17           17.000000         3.900502989       304.343948111     -1262.708828849     -1258.793855932        12.094201189
        18           18.000000         3.870666634       302.015911442     -1262.666000692     -1258.780059511        12.691736951
        19           19.000000         3.795328491       296.137513678     -1262.567893145     -1258.756492200        12.047399431
        20           20.000000         3.875299368       302.377389009     -1262.682432695     -1258.790268337        12.091258358
        21           21.000000         3.855246332       300.812713842     -1262.631397095     -1258.758483263        12.093904495
        22           22.000000         3.944584566       307.783494535     -1262.741043022     -1258.777976147        12.064027727
        23           23.000000         3.961190461       309.079200211     -1262.795607187     -1258.815089719        12.046541095
        24           24.000000         3.827323813       298.634007755     -1262.589786046     -1258.742283149        12.093767658
        25           25.000000         3.901018544       304.384175211     -1262.702511850     -1258.780466765        12.054886650
        26           26.000000         3.890630958       303.573664634     -1262.688568465     -1258.776047106        12.072200812
        27           27.000000         3.858930238       301.100157479     -1262.644850708     -1258.763161964        12.065674070
        28           28.000000         3.896195384       304.007839256     -1262.681079043     -1258.761251609        12.086990599
        29           29.000000         3.795865676       296.179428517     -1262.541159142     -1258.720787931        12.054825619
        30           30.000000         3.875443345       302.388623143     -1262.675282976     -1258.774468035        12.070605289
        31           31.000000         3.919317126       305.811955874     -1262.736861289     -1258.791287034        12.062382501
        32           32.000000         3.797897503       296.337965614     -1262.598180811     -1258.773138466        12.078305386
        33           33.000000         3.831377463       298.950301317     -1262.691035570     -1258.831640928        12.085595019
        34           34.000000         3.807005205       297.048610834     -1262.649150283     -1258.813258419        12.077039637
        35           35.000000         3.839103759       299.553159830     -1262.682443183     -1258.813588336        12.068230003
        36           36.000000         3.927801969       306.474001421     -1262.787150490     -1258.828718850        12.062557381
        37           37.000000         3.808195669       297.141499002     -1262.608529062     -1258.768817030        12.090757471
        38           38.000000         3.846877300       300.159704673     -1262.674707792     -1258.795439864        12.079027466
        39           39.000000         3.915092073       305.482288361     -1262.758535744     -1258.810165202        12.090168327
        40           40.000000         3.864829276       301.560440816     -1262.642061392     -1258.743052381        12.111418519
        41           41.000000         3.900882988       304.373598243     -1262.710886880     -1258.774918117        12.126982152
        42           42.000000         3.822910095       298.289619280     -1262.576540627     -1258.717635060        12.092286389
        43           43.000000         3.843324904       299.882522474     -1262.581957270     -1258.701735727        12.101331078
        44           44.000000         3.949975236       308.204111563     -1262.736568650     -1258.748778601        12.062897857
        45           45.000000         3.840808080       299.686142631     -1262.634092572     -1258.754535895        12.085062467
        46           46.000000         3.814947658       297.668335450     -1262.594587088     -1258.739971795        12.083650183
        47           47.000000         3.804049546       296.817990081     -1262.599362594     -1258.754736229        12.069538012
        48           48.000000         3.784564580       295.297639685     -1262.559189249     -1258.733150452        12.048991654
        49           49.000000         3.883432909       303.012023574     -1262.696881022     -1258.771076106        12.068891928
        50           50.000000         3.795283343       296.133990904     -1262.558549135     -1258.719991615        12.209030323
        51           51.000000         3.760866165       293.448527093     -1262.519588597     -1258.714568825        12.685233578
        52           52.000000         3.864973188       301.571669769     -1262.661450714     -1258.751449580        12.759779766
        53           53.000000         3.827914363       298.680086494     -1262.637961556     -1258.764136648        12.696731474
        54           54.000000         3.857067855       300.954841546     -1262.753029795     -1258.849171385        12.691384666
        55           55.000000         3.812950969       297.512540067     -1262.706620552     -1258.846000074        12.731097460
        56           56.000000         3.754914433       292.984132170     -1262.591970717     -1258.788526093        12.742151201
        57           57.000000         3.890639439       303.574326376     -1262.798218948     -1258.858192875        12.717930004
        58           58.000000         3.862652240       301.390573516     -1262.749155353     -1258.836242814        12.704345737
        59           59.000000         3.831715476       298.976675383     -1262.711827984     -1258.828981660        12.679234169
        60           60.000000         3.884482440       303.093915209     -1262.815312571     -1258.878826766        12.702526495
        61           61.000000         3.849057302       300.329803422     -1262.753430169     -1258.851489257        12.735533755
        62           62.000000         3.926030039       306.335743336     -1262.813159542     -1258.833357177        12.712107740
        63           63.000000         3.893929547       303.831043129     -1262.800656069     -1258.852046635        12.742336527
        64           64.000000         3.800232184       296.520133377     -1262.650658804     -1258.794845470        13.360589780
        65           65.000000         3.886142410       303.223437385     -1262.770997565     -1258.828378088        12.728617869
        66           66.000000         3.865818939       301.637661045     -1262.751419675     -1258.828214473        12.730511382
        67           67.000000         3.854347576       300.742586787     -1262.743945881     -1258.831302161        12.725164630
        68           68.000000         3.858192662       301.042606692     -1262.763484961     -1258.846084916        12.782793637
        69           69.000000         3.784997772       295.331440268     -1262.688128681     -1258.843019778        12.088191632
        70           70.000000         3.888761517       303.427798075     -1262.824340251     -1258.874567844        12.736262072
        71           71.000000         3.904869841       304.684679774     -1262.844060916     -1258.877259748        12.140772663
        72           72.000000         3.809647377       297.254771203     -1262.666044238     -1258.793545286        12.110944945
        73           73.000000         3.860854876       301.250330897     -1262.726649645     -1258.802031658        12.087041441
        74           74.000000         3.846299375       300.114611057     -1262.690333252     -1258.779353422        12.120096944
        75           75.000000         3.884920633       303.128106015     -1262.747947192     -1258.797424386        12.099199645
        76           76.000000         3.898378295       304.178164927     -1262.727276944     -1258.762361217        12.133089516
        77           77.000000         3.773508061       294.434934329     -1262.564344551     -1258.723370110        12.119643368
        78           78.000000         3.846552669       300.134374773     -1262.615161421     -1258.700229135        12.113630060
        79           79.000000         3.896960386       304.067529972     -1262.685280565     -1258.719012921        12.146629505
        80           80.000000         3.863797232       301.479913631     -1262.648240873     -1258.714198495        12.156245548
        81           81.000000         3.876450092       302.467176391     -1262.697357147     -1258.749721753        12.125623263
        82           82.000000         3.791726555       295.856466018     -1262.588232349     -1258.724385460        12.165904403
        83           83.000000         3.842837592       299.844499019     -1262.648924157     -1258.733042760        12.119180329
        84           84.000000         3.920731914       305.922347300     -1262.743195565     -1258.748480764        12.109856155
        85           85.000000         3.814378527       297.623927929     -1262.543072114     -1258.653764775        12.151291624
        86           86.000000         3.812859864       297.505431457     -1262.562002894     -1258.673285245        12.147737712
        87           87.000000         3.812465504       297.474660774     -1262.530074173     -1258.640828813        12.158124115
        88           88.000000         3.835881030       299.301700455     -1262.546764881     -1258.633185363        12.136645820
        89           89.000000         3.911436633       305.197065889     -1262.698178089     -1258.708113317        12.131990399
        90           90.000000         3.804665914       296.866083358     -1262.560299321     -1258.676071006        12.143616673
        91           91.000000         3.802698920       296.712605007     -1262.658068266     -1258.774891627        12.181991756
        92           92.000000         3.891625229       303.651244456     -1262.776059007     -1258.803036887        12.807664197
        93           93.000000         3.866473244       301.688714397     -1262.742801679     -1258.793998668        12.158220414
        94           94.000000         3.894650640       303.887307770     -1262.831528377     -1258.853609503        12.178057991
        95           95.000000         3.838820742       299.531076860     -1262.849293893     -1258.926262421        12.167179067
        96           96.000000         3.822801508       298.281146560     -1262.820295700     -1258.912350463        12.847832870
        97           97.000000         3.941443834       307.538433150     -1262.943980136     -1258.916448671        12.857027289
        98           98.000000         3.880896113       302.814085428     -1262.859921069     -1258.891971922        12.137441270
        99           99.000000         3.844947477       300.009126685     -1262.875575087     -1258.942613831        12.196667485
       100          100.000000         3.879144126       302.677383387     -1262.925963198     -1258.957843641        12.837600593
       101          101.000000         3.861826592       301.326150814     -1262.802344432     -1258.850573751        12.184673544
       102          102.000000         3.927483877       306.449181684     -1262.907077053     -1258.888669556        12.869006194
       103          103.000000         3.871067164       302.047163540     -1262.829078104     -1258.866093782        12.871772457
       104          104.000000         3.802264412       296.678701727     -1262.760322464     -1258.865159182        12.181432914
       105          105.000000         3.877788701       302.571623822     -1262.918652751     -1258.946988374        12.862508625
       106          106.000000         3.840530478       299.664482208     -1262.855659570     -1258.920268858        12.855006598
       107          107.000000         3.837043929       299.392437791     -1262.858600942     -1258.925718371        12.849679429
       108          108.000000         3.840460536       299.659024843     -1262.891902463     -1258.954627248        12.857404999
       109          109.000000         3.789613860       295.691619030     -1262.827474950     -1258.940079618        12.882929999
       110          110.000000         3.876758553       302.491244679     -1262.938132908     -1258.962630129        12.886396572
       111          111.000000         3.851780936       300.542319925     -1262.896560389     -1258.945062152        12.865050655
       112          112.000000         3.785480287       295.369089390     -1262.811904594     -1258.925746174        12.888537679
       113          113.000000         3.850777908       300.464056818     -1262.904061976     -1258.951654930        12.204249837
       114          114.000000         3.844361352       299.963393241     -1262.859723054     -1258.912776009        12.223776419
       115          115.000000         3.867370894       301.758755184     -1262.866678135     -1258.895763519        12.187750675
       116          116.000000         3.850046999       300.407026308     -1262.843470023     -1258.888918328        12.246401254
       117          117.000000         3.776631361       294.678635610     -1262.773738725     -1258.891654628        12.210125204
       118          118.000000         3.868367647       301.836528745     -1262.917437351     -1258.942677471        12.868324492
       119          119.000000         3.876461571       302.468072063     -1262.923104218     -1258.939297373        12.226306625
       120          120.000000         3.811746003       297.418520383     -1262.791862137     -1258.871821689        12.206848063
       121          121.000000         3.825014488       298.453818438     -1262.835978215     -1258.901732540        12.908767037
       122          122.000000         3.804027886       296.816300088     -1262.796322097     -1258.882133467        12.930627387
       123          123.000000         3.870936927       302.037001489     -1262.881393982     -1258.899368617        13.069516901
       124          124.000000         3.873582070       302.243393702     -1262.894830744     -1258.909222031        12.908419013
       125          125.000000         3.750150894       292.612448302     -1262.736054628     -1258.872952469        12.221656043
       126          126.000000         3.782456207       295.133129955     -1262.789287779     -1258.892983087        12.910141874
       127          127.000000         3.814999535       297.672383225     -1262.822280208     -1258.892541137        12.216200687
       128          128.000000         3.810654719       297.333370944     -1262.777936376     -1258.851656180        12.212336931
       129          129.000000         3.817847954       297.894636414     -1262.803163767     -1258.868812174        12.899736539
       130          130.000000         3.737522810       291.627118658     -1262.690124100     -1258.835236931        12.188167337
       131          131.000000         3.808360834       297.154386340     -1262.784734890     -1258.858169089        12.186437234
       132          132.000000         3.899364992       304.255153817     -1262.895061204     -1258.876641007        12.208086368
       133          133.000000         3.828082977       298.693242983     -1262.806070491     -1258.858074675        12.222784728
       134          134.000000         3.812717479       297.494321583     -1262.848546292     -1258.915071551        12.908057086
       135          135.000000         3.779726465       294.920136842     -1262.796378983     -1258.895064605        12.891292833
       136          136.000000         3.817510370       297.868295744     -1262.833340261     -1258.893423604        12.875105351
       137          137.000000         3.899588200       304.272570018     -1262.931391234     -1258.908571497        12.222244486
       138          138.000000         3.819144014       297.995763828     -1262.808598108     -1258.865391925        12.838643827
       139          139.000000         3.815331777       297.698307010     -1262.911813420     -1258.971602804        13.511896044
       140          140.000000         3.851332047       300.507294528     -1262.971717061     -1258.994692671        13.539481271
       141          141.000000         3.830618012       298.891043743     -1262.925956407     -1258.968832758        13.543003134
       142          142.000000         3.843358958       299.885179558     -1262.934145784     -1258.963472478        12.831893690
       143          143.000000         3.763644025       293.665274733     -1262.838646460     -1258.946890711        12.829412945
       144          144.000000         3.749501251       292.561758672     -1262.800567967     -1258.922183432        12.821170472
       145          145.000000         3.848763710       300.306895289     -1262.937607025     -1258.959197502        12.827200651
       146          146.000000         3.809894122       297.274023983     -1262.896872372     -1258.956568151        13.542604942
       147          147.000000         3.793948392       296.029828958     -1262.876548441     -1258.951439154        12.861884341
       148          148.000000         3.792165327       295.890702021     -1262.919605304     -1258.995541391        14.141071822
       149          149.000000         3.778284337       294.807612076     -1262.889150006     -1258.978243212        14.172733836
       150          150.000000         3.854796940       300.777649207     -1262.910713205     -1258.922576563        12.894949839
       151          151.000000         3.806415410       297.002590997     -1262.786009256     -1258.845536974        12.828787755
       152          152.000000         3.770703863       294.216131660     -1262.749225173     -1258.843763981        12.904664144
       153          153.000000         3.853369373       300.666260677     -1262.848460384     -1258.859642263        12.848042108
       154          154.000000         3.850326501       300.428834971     -1262.828676883     -1258.842204983        12.830090404
       155          155.000000         3.861277032       301.283270392     -1262.848043717     -1258.849924041        12.848357186
       156          156.000000         3.826227661       298.548478519     -1262.815645209     -1258.851879271        12.879288513
       157          157.000000         3.780608495       294.988958842     -1262.750148809     -1258.831319186        12.876267716
       158          158.000000         3.890715184       303.580236512     -1262.888349430     -1258.858734979        12.866992466
       159          159.000000         3.891060366       303.607170018     -1262.880040203     -1258.849387702        12.852382328
       160          160.000000         3.831897561       298.990882894     -1262.819835812     -1258.847652260        12.880653609
       161          161.000000         3.843532003       299.898681689     -1262.851475614     -1258.866970406        12.864890423
       162          162.000000         3.825979140       298.529087192     -1262.770515618     -1258.802879121        12.886405297
       163          163.000000         3.896699074       304.047140583     -1262.858800707     -1258.819758505        12.848069306
       164          164.000000         3.894352104       303.864013960     -1262.860129980     -1258.822735821        12.193114258
       165          165.000000         3.802566808       296.702296739     -1262.722402450     -1258.776097000        12.198819265
       166          166.000000         3.841140801       299.712103777     -1262.781322688     -1258.795758207        12.201418534
       167          167.000000         3.860228128       301.201427704     -1262.795269167     -1258.789929936        12.172317374
       168          168.000000         3.873623667       302.246639400     -1262.806822971     -1258.787396492        12.238473006
       169          169.000000         3.886592524       303.258558366     -1262.833877655     -1258.800784032        12.185688257
       170          170.000000         3.818453808       297.941909267     -1262.766843537     -1258.801190558        12.853656124
       171          171.000000         3.848455013       300.282808637     -1262.812143833     -1258.815799430        12.881371714
       172          172.000000         3.875725815       302.410663351     -1262.850298506     -1258.825988848        12.849256594
       173          173.000000         3.818199557       297.922070828     -1262.768858337     -1258.801380730        12.204101413
       174          174.000000         3.842157347       299.791421631     -1262.845119164     -1258.852997451        12.193388782
       175          175.000000         3.834911078       299.226018135     -1262.817227526     -1258.831667156        12.898312747
       176          176.000000         3.846832879       300.156238679     -1262.810944179     -1258.812779743        12.854569227
       177          177.000000         3.881501237       302.861301303     -1262.871129358     -1258.837610765        12.832987398
       178          178.000000         3.806535248       297.011941606     -1262.773019557     -1258.813781716        12.859541900
       179          179.000000         3.819820841       298.048574508     -1262.824012342     -1258.850816152        12.855287276
       180          180.000000         3.842465509       299.815466531     -1262.846937544     -1258.850427070        12.899749815
       181          181.000000         3.796339533       296.216402097     -1262.758268941     -1258.807220589        12.198713355
       182          182.000000         3.800581908       296.547421254     -1262.772958093     -1258.817017024        12.205873474
       183          183.000000         3.760629448       293.430056826     -1262.740207658     -1258.823583025        12.219260138
       184          184.000000         3.769998641       294.161105359     -1262.748750502     -1258.822139987        12.199361965
       185          185.000000         3.824966986       298.450112017     -1262.834541218     -1258.852355492        12.176804274
       186          186.000000         3.773431622       294.428970092     -1262.766444174     -1258.835194588        12.237588890
       187          187.000000         3.778036978       294.788311497     -1262.783766151     -1258.847329708        12.187358897
       188          188.000000         3.810742170       297.340194481     -1262.790045946     -1258.820333762        12.202245358
       189          189.000000         3.806592200       297.016385405     -1262.770600034     -1258.804474075        12.219295654
       190          190.000000         3.847718629       300.225350964     -1262.935811262     -1258.928000162        12.869246192
       191          191.000000         3.808569130       297.170638991     -1262.973815213     -1259.004597425        13.511911012
       192          192.000000         3.801934768       296.652980682     -1263.006928244     -1259.043799563        13.543835830
       193          193.000000         3.865005765       301.574211646     -1263.050538064     -1259.023797126        12.896971468
       194          194.000000         3.839418411       299.577711151     -1263.037351011     -1259.035652891        13.504788101
       195          195.000000         3.855788457       300.855014192     -1263.062141204     -1259.043530377        13.523226190
       196          196.000000         3.874742482       302.333937020     -1263.071879681     -1259.033768589        12.870923098
       197          197.000000         3.877548001       302.552842781     -1263.065724531     -1259.024255703        12.868671227
       198          198.000000         3.936470846       307.150406598     -1263.163650185     -1259.062694996        12.821105674
       199          199.000000         3.899840091       304.292224271     -1263.123077415     -1259.058172865        13.507565755
       200          200.000000         3.861790049       301.323299493     -1263.075902975     -1259.048464021        13.518860668
       201          201.000000         3.903103848       304.546884938     -1263.131810661     -1259.062468998        14.249847673
       202          202.000000         3.889942010       303.519908254     -1263.108585029     -1259.051804978        13.481806457
       203          203.000000         3.900734524       304.362014063     -1263.147932446     -1259.079751331        14.124733586
       204          204.000000         3.877194111       302.525229861     -1263.132615958     -1259.087358529        13.522982910
       205          205.000000         3.819043837       297.987947378     -1263.029517092     -1259.041795325        13.508746423
       206          206.000000         3.871632484       302.091273673     -1263.103306277     -1259.062385337        13.492204614
       207          207.000000         3.861325449       301.287048209     -1263.147247835     -1259.116017487        14.143265020
       208          208.000000         3.840313923       299.647585060     -1263.136288911     -1259.125454353        14.181887437
       209          209.000000         3.873514079       302.238088534     -1263.116381629     -1259.071730992        12.824046921
       210          210.000000         3.862721210       301.395955020     -1263.095348335     -1259.060869438        13.521551814
       211          211.000000         3.900983051       304.381405832     -1263.079992506     -1259.006624826        12.862904627
       212          212.000000         3.888567804       303.412683276     -1263.033871524     -1258.972281247        12.837220505
       213          213.000000         3.812809120       297.501472079     -1262.939599532     -1258.953131401        12.839749712
       214          214.000000         3.831802077       298.983432617     -1262.930343832     -1258.924256168        12.169676259
       215          215.000000         3.839018943       299.546541862     -1262.971543776     -1258.957614656        12.851763383
       216          216.000000         3.846154474       300.103304890     -1262.943797341     -1258.922109332        12.851845283
       217          217.000000         3.880992741       302.821625003     -1262.991800395     -1258.934647630        12.890651055
       218          218.000000         3.862171999       301.353101841     -1262.960785170     -1258.921820675        12.190025121
       219          219.000000         3.901830170       304.447503831     -1263.007542602     -1258.928282027        12.218152653
       220          220.000000         3.917601163       305.678064678     -1263.044299333     -1258.948615588        12.848933712
       221          221.000000         3.858001722       301.027708236     -1263.000156480     -1258.963412149        12.856409799
       222          222.000000         3.864169860       301.508988628     -1263.026700971     -1258.983129990        12.842462886
       223          223.000000         3.861370713       301.290579990     -1263.017266144     -1258.975833150        12.859587796
       224          224.000000         3.894730045       303.893503512     -1263.045223115     -1258.969764066        12.886242349
       225          225.000000         3.947200415       307.987600985     -1263.110564647     -1258.981951781        12.856513802
       226          226.000000         3.905790025       304.756478827     -1263.038681264     -1258.950777278        12.891285777
       227          227.000000         3.913043974       305.322481645     -1263.055272996     -1258.959404343        12.873217866