    2698
 i =        0, time =        0.000, E =     -1250.9539286427
  C        10.4835100000       11.7653750000       13.1942570000
  O        11.2547380000       12.6670380000       13.4150730000
  O         9.7349120000       10.8476320000       13.1892190000
  N         9.7443680000       12.7527640000       10.5786330000
  H         9.6208930000       12.5958410000        9.5882390000
  H         8.8018190000       12.5128760000       11.0179350000
  H         9.9739900000       13.7819340000       10.7618190000
  O        12.0739790000       14.8926950000       12.3483370000
  H        12.3334800000       15.5643620000       13.0257430000
  H        11.5989310000       14.2112730000       12.9713480000
  O        10.1370820000       15.4374030000       10.6147640000
  H         9.6453710000       16.2969950000       10.7994300000
  H        10.8008930000       15.2907940000       11.4732950000
  O         2.2554210000       11.1244670000       -5.4921220000
  H         2.9806650000       11.0722010000       -4.8022740000
  H         2.1784760000       10.1741150000       -5.7290890000
  O        31.8866330000       28.3622280000       -6.8138580000
  H        31.1833460000       27.7971190000       -6.4052680000
  H        31.8567350000       29.0903030000       -6.1407290000
  O        25.0909670000       10.3984580000        9.6226980000
  H        24.4018120000       11.1128810000        9.8364980000
  H        25.8741380000       10.8295870000       10.0959370000
  O        13.5779610000       -0.6910830000        7.4764640000
  H        13.4767590000        0.2775150000        7.5268150000
  H        13.5317720000       -0.8674520000        6.5231350000
  O        -5.4088580000       23.6660000000       -2.2009690000
  H        -5.7304990000       23.0835210000       -2.9502270000
  H        -6.2412920000       24.0771370000       -1.9245360000
  O        -5.2655840000        8.8624870000       -0.4458110000
  H        -6.0859650000        8.6936710000        0.0843900000
  H        -5.7144740000        9.2851950000       -1.2415280000
  O        23.9264720000        6.4082120000        3.3616990000
  H        24.0415880000        5.9092660000        4.2141170000
  H        22.9793190000        6.6688560000        3.4999600000
  O        21.9040390000       25.9167100000       -4.1229640000
  H        22.6949620000       25.7695790000       -3.6167540000
  H        21.7874490000       26.8673650000       -3.9825880000
  O         0.7387550000       10.6802740000        5.6577710000
  H         0.1430940000       10.3881370000        4.9398930000
  H         0.3201040000       10.2708880000        6.4449280000
  O         2.8051430000       20.8195990000      -10.3956150000
  H         3.2290630000       20.9592860000      -11.2542800000
  H         1.8777950000       21.1354410000      -10.6262980000
  O        24.3092120000        8.0017740000        1.0961570000
  H        24.3593370000        7.7876060000        2.0357870000
  H        23.7320040000        7.3039020000        0.7880910000
  O         1.7114860000        6.2027780000      -12.2400900000
  H         2.0041580000        5.4542970000      -12.8233900000
  H         0.7746540000        6.2348240000      -12.5818100000
  O        20.9141500000        1.6704720000       -5.2087680000
  H        20.2696340000        2.1713990000       -4.7574300000
  H        20.5888020000        1.5742210000       -6.1050350000
  O        10.6016440000        0.0503590000       -7.7192630000
  H        10.5934780000        0.4329610000       -6.7957820000
  H        11.5689330000       -0.0670140000       -7.8176420000
  O         0.8105220000       20.9109820000       -3.0096030000
  H         0.0293420000       20.7768420000       -2.4773870000
  H         0.5025820000       20.4648440000       -3.8404360000
  O        24.8699630000       -1.6852450000       -5.9659320000
  H        24.4969710000       -2.6192260000       -5.9275360000
  H        24.1606860000       -1.2576870000       -6.4794760000
  O        15.8907900000       25.0403480000       -5.5995390000
  H        15.5341510000       25.4701900000       -6.4259010000
  H        16.0353850000       24.1100180000       -5.9636740000
  O        19.6036930000       13.4943760000      -11.8719130000
  H        19.3420070000       13.7928220000      -12.7985860000
  H        18.6650660000       13.2986520000      -11.5311680000
  O        14.3785530000       14.9195790000      -13.2423680000
  H        13.6679430000       14.3568090000      -13.5243230000
  H        14.0060570000       15.2437270000      -12.3884040000
  O        18.8519230000       25.5425780000      -14.0357050000
  H        19.1274660000       26.2958410000      -13.3790690000
  H        18.3024920000       26.0529790000      -14.6214490000
  O        18.2208810000        7.4117830000       -3.3915990000
  H        17.7137580000        7.1868270000       -2.5843330000
  H        19.1111180000        7.0804610000       -3.1483610000
  O        23.6574750000        4.0225840000       -4.6504640000
  H        23.0946220000        4.4464110000       -5.3562850000
  H        23.7834070000        3.1376310000       -5.0821400000
  O        -2.3225340000        8.1176300000       -6.9870340000
  H        -2.6928160000        7.2730960000       -7.3454330000
  H        -1.5069900000        8.2215340000       -7.5499250000
  O        20.8974380000       11.6856210000       -0.7396290000
  H        20.0577450000       11.7204130000       -0.2179780000
  H        21.4973740000       11.2968560000       -0.0288000000
  O        17.4198360000        8.9591400000        2.4679200000
  H        17.9401840000        9.4914820000        3.1869550000
  H        17.2658230000        8.1318550000        3.0408770000
  O        -1.3249050000       24.3720660000        3.5464390000
  H        -0.4532270000       23.8896870000        3.4959380000
  H        -1.8858980000       23.7285350000        3.0761170000
  O        25.5960540000        4.4451100000      -12.7790530000
  H        25.9807510000        3.5701210000      -12.9649600000
  H        24.7605020000        4.3808560000      -13.2510590000
  O        11.9264900000        1.5935300000        3.0630330000
  H        11.4212250000        1.9249890000        3.8183160000
  H        11.3748850000        0.9862250000        2.6202460000
  O        25.3606190000        0.5537100000        4.2928860000
  H        25.4613970000        0.0150430000        3.4910350000
  H        25.6909280000       -0.0550240000        4.9915670000
  O         6.5776860000       10.7933220000      -11.5858500000
  H         5.6107270000       10.7505850000      -11.6251000000
  H         6.7360390000       10.7365720000      -10.6034230000
  O        28.6147800000      -11.5786670000        7.9125020000
  H        28.2017780000      -11.5970910000        8.7894390000
  H        29.2863540000       21.1138420000        8.1223310000
  O         8.2204620000        0.8544500000        3.9057160000
  H         8.5744840000        0.2267630000        4.6055670000
  H         7.9812300000        1.5730310000        4.5386020000
  O         4.2248230000        2.7386510000       -2.6404740000
  H         4.0466090000        3.5817240000       -2.1699440000
  H         5.0439850000        2.5140010000       -2.1279950000
  O        10.2606700000       -3.7626350000       -7.2386920000
  H        10.9927570000       -3.3025780000       -6.7834240000
  H         9.6073130000       -3.0148780000       -7.3699750000
  O        28.1474210000       20.5833870000       10.8694580000
  H        27.1791530000       20.4490200000       10.8580120000
  H        28.2475430000       21.3356000000       11.4275880000
  O        22.6026840000       12.6332450000       -4.6806810000
  H        21.8562980000       12.3511480000       -4.1788450000
  H        22.2839660000       13.5147210000       -5.0029270000
  O        18.4876520000        3.2786510000       -1.5164840000
  H        18.3019010000        4.2430740000       -1.4828620000
  H        18.3747750000        3.0812160000       -2.4974840000
  O        -0.2544770000        7.5960890000       -8.6951160000
  H        -0.7495460000        7.0357860000       -9.3470060000
  H         0.6388070000        7.3320560000       -8.9456450000
  O        11.5545290000        5.0537950000        2.7784420000
  H        11.1840200000        4.1684820000        2.9443890000
  H        11.8630020000        4.8712170000        1.8455670000
  O        11.3294450000        1.3675830000       -0.2026150000
  H        10.7314740000        1.2602490000        0.5483940000
  H        10.8093590000        0.9149820000       -0.9292450000
  O         6.1813490000        3.5686320000      -11.9756710000
  H         6.8239290000        2.7907730000      -11.8545930000
  H         6.8278780000        4.3396260000      -11.8492380000
  O        26.4776730000        8.3962040000        7.9953090000
  H        25.6115070000        8.1560590000        8.3747150000
  H        26.3006440000        9.1178340000        7.4596320000
  O        16.2108150000       14.6243750000        1.7728420000
  H        16.0119440000       14.5290810000        2.7250670000
  H        15.3762040000       15.0718820000        1.4537390000
  O         0.4042200000       12.8522770000       -6.9618260000
  H         1.1278260000       12.3016740000       -6.6411000000
  H         0.2004400000       12.4284600000       -7.8385210000
  O         8.4339750000       15.8699940000       -9.6248500000
  H         7.7600330000       15.1863130000       -9.5771410000
  H         8.4119570000       16.2716940000       -8.7231060000
  O        28.9200630000        1.9449630000        5.7783070000
  H        28.9215910000        1.0816670000        5.2220030000
  H        27.9577900000        2.1932150000        5.6987200000
  O        20.5453950000        8.4861360000       10.0253000000
  H        21.0597270000        7.7498330000       10.4380920000
  H        19.6886690000        8.3518180000       10.4977690000
  O         8.4723660000       -5.6429000000       -8.5460230000
  H         8.0563050000       -4.7865190000       -8.7773950000
  H         9.0817940000       -5.3341740000       -7.8133170000
  O        16.8594190000        9.8984550000       -0.9637910000
  H        17.5857330000        9.3791260000       -0.4930000000
  H        16.2127550000        9.8844150000       -0.2565860000
  O         6.8267830000        6.2176370000       13.0217700000
  H         6.2753850000        6.8723670000       13.5463650000
  H         6.3394370000        5.9021920000       12.2727660000
  O         7.1506370000       18.9069180000        3.8637860000
  H         6.6120530000       19.1081390000        4.6511020000
  H         6.5107580000       18.9383600000        3.1404830000
  O         7.3625490000       28.8424700000       -0.7665860000
  H         7.8580270000       28.0495220000       -1.0679990000
  H         7.8995610000       29.5179460000       -1.2949940000
  O         9.3531270000        1.9949570000       -9.4780710000
  H         9.7822480000        2.5608030000       -8.8164310000
  H         9.6836400000        1.0877850000       -9.1936230000
  O         8.4163220000       17.0909180000        7.9288190000
  H         7.8117930000       17.8887230000        7.9113780000
  H         7.7631650000       16.3603440000        7.7691090000
  O         2.7923280000        0.6852860000        8.8731610000
  H         3.3649750000        1.4799450000        9.0599770000
  H         3.4276480000        0.2325820000        8.2451350000
  O        19.9271240000       -1.3947260000      -11.1773630000
  H        19.6532360000       -1.3713260000      -12.1227290000
  H        20.7616480000       -0.8631460000      -11.2377270000
  O        28.6595750000       21.4494320000      -12.6335980000
  H        29.4862250000       21.7401890000      -13.0447310000
  H        28.5858250000       22.0843090000      -11.8680250000
  O         8.2817980000       -6.3729360000        9.9035350000
  H         8.6680950000       26.2718790000       10.5258670000
  H         7.5484060000       -6.7096410000       10.4863610000
  O         3.8643470000       17.4221630000        0.9799350000
  H         4.3473680000       16.7648750000        0.3874030000
  H         4.4798200000       17.3491380000        1.7708520000
  O        26.6985510000       17.3952220000        6.7453350000
  H        26.0629900000       16.9895380000        7.3705500000
  H        27.4648300000       16.7442340000        6.7524180000
  O        11.9847470000       10.7885270000       -0.7515020000
  H        12.8610690000       10.5124050000       -0.9553820000
  H        12.1354970000       11.7539790000       -0.5205710000
  O        28.8362350000        5.2147000000       10.0171180000
  H        28.3638230000        4.6113560000       10.6440870000
  H        28.3504300000        5.0208030000        9.1595920000
  O        -0.1731760000       -1.0917390000        1.5780840000
  H         0.3827260000       -0.3220690000        1.3660600000
  H        -0.9395100000       -0.6107150000        2.0258310000
  O        20.3850730000       25.3080270000        2.6303990000
  H        20.4789450000       24.7385030000        1.8739370000
  H        19.6034180000       25.7914770000        2.3805780000
  O        23.0158180000       29.3356880000       -3.9900130000
  H        23.1919590000       30.3192980000       -4.1097950000
  H        22.2304780000       29.2899800000       -4.5794550000
  O        22.1106240000       15.5221030000       -4.0611960000
  H        21.1864070000       15.4513050000       -3.8749440000
  H        22.4066200000       16.0256180000       -3.2845680000
  O        12.4180560000        0.2793720000       10.6398670000
  H        12.5479350000        0.6937420000        9.7818510000
  H        13.1258400000        0.6563320000       11.1920430000
  O        14.2683380000       17.3697380000       13.0112540000
  H        14.6595520000       17.9134480000       12.3244180000
  H        14.5165180000       17.8064770000       13.8406070000
  O         2.7071620000       -2.8987330000       -2.7627390000
  H         2.5722660000       -3.3563960000       -1.8951360000
  H         2.5332790000       -3.5945190000       -3.3856100000
  O        13.4369010000        7.8393140000      -12.5120530000
  H        14.0210840000        8.0954960000      -11.8058410000
  H        12.9435670000        7.1224780000      -12.1167100000
  O         4.7051720000       -1.0432060000       -2.7004400000
  H         4.1240840000       -1.7895860000       -2.9375650000
  H         4.0125920000       -0.4107800000       -2.4539700000
  O        25.9537600000        8.3780010000       -8.7290950000
  H        25.4025380000        7.7910700000       -8.1702190000
  H        25.2789960000        8.6740480000       -9.3706450000
  O        11.6202070000        7.6406460000        5.7137690000
  H        11.3422230000        8.6051650000        5.7754550000
  H        10.7733750000        7.2016040000        5.4692180000
  O        11.9032350000       14.7712460000       -1.3142310000
  H        12.3233140000       14.1313760000       -0.7898790000
  H        10.9739830000       14.7270630000       -1.0832920000
  O         7.0354810000       13.9510360000       -7.2036290000
  H         6.1243890000       13.5833570000       -7.0915580000
  H         7.2879610000       13.4901350000       -8.0038630000
  O        19.7928120000       -0.9835050000       -4.3802670000
  H        19.7207030000       -0.5090120000       -5.1969280000
  H        20.1724280000       -0.2604350000       -3.8240050000
  O        22.3203870000       -1.9588320000      -14.3484200000
  H        21.4319190000       -1.5795350000      -14.5630990000
  H        22.0951630000       -2.9065570000      -14.2535950000
  O         7.5799090000       26.0846710000       -0.1271890000
  H         7.9385290000       25.3953060000        0.4684160000
  H         8.0194900000       25.8320390000       -0.9442610000
  O        22.5147550000        3.0050160000      -11.1088330000
  H        22.7166690000        3.1882110000      -12.0803860000
  H        22.1951680000        3.8784400000      -10.8060150000
  O        11.2971930000       19.6718240000       -9.1050010000
  H        11.4451460000       18.7685390000       -8.7807080000
  H        10.2917300000       19.6728320000       -9.2327080000
  O        12.1854070000       13.0289500000        4.6926000000
  H        12.2300650000       13.9948090000        4.6066760000
  H        11.2135480000       12.9249530000        4.8411090000
  O        21.1738260000       15.2229440000       10.2443100000
  H        20.2252220000       15.1834990000       10.1218670000
  H        21.2520640000       16.1487120000       10.6961600000
  O        10.3699430000        3.2188070000        4.6064430000
  H        10.2345670000        2.5466830000        5.3177540000
  H        10.9747740000        3.8347770000        5.0155990000
  O        21.9380680000       17.0616950000        6.5824690000
  H        21.7241040000       18.0262280000        6.4337080000
  H        21.1988490000       16.8573130000        7.1669050000
  O        22.2717480000       27.0253200000        9.9253380000
  H        22.9122280000       26.3512740000        9.7800360000
  H        22.2275050000       27.4255240000        9.0237900000
  O         6.2135420000        2.9995960000       -0.8343640000
  H         6.4608570000        3.9243260000       -0.8133220000
  H         6.7040710000        2.5990310000       -0.1156530000
  O         2.0417890000        4.7002900000        7.6859900000
  H         1.9970450000        4.0142520000        7.0540850000
  H         1.7317520000        4.3408210000        8.5116870000
  O        -0.7742120000        2.9224040000        3.3312900000
  H        -0.2452080000        3.6718870000        3.0307520000
  H        -1.6617970000        3.3624400000        3.3542340000
  O         8.4267290000       -2.5049310000        1.6920100000
  H         7.8167470000       -2.4599440000        0.9194930000
  H         9.2245000000       -2.8827350000        1.2306330000
  O        18.4188690000       14.8662830000        9.9756780000
  H        17.6158910000       15.0911940000       10.5048780000
  H        18.2924160000       15.1525170000        9.0355960000
  O        14.5868460000       27.2944950000      -15.6899180000
  H        13.8382430000       26.9627720000      -15.2106260000
  H        14.5062150000       26.8400610000      -16.5611250000
  O         7.9934420000        2.1307960000       -4.3767430000
  H         7.5835880000        2.9326540000       -3.9271660000
  H         7.4005280000        1.3978740000       -4.0308150000
  O        17.9418930000       26.6327720000        3.4794060000
  H        18.0903660000       -5.9750600000        4.2252730000
  H        18.2936590000       27.4801580000        3.9210040000
  O        11.9390750000       20.7251910000       -3.3552070000
  H        11.2614970000       20.3940680000       -3.9657710000
  H        12.5030490000       19.9313050000       -3.3432390000
  O        16.4161800000        4.7258830000       10.6391310000
  H        16.3786030000        4.2679170000        9.7688050000
  H        15.5236030000        4.5373810000       10.9234470000
  O        17.5222400000       -3.6073500000        7.8648700000
  H        17.9546950000       -2.7916720000        8.0504810000
  H        16.6113930000       28.5060580000        8.1486850000
  O         2.5576350000       12.4133740000        4.3462620000
  H         1.8588490000       11.8566880000        4.6358520000
  H         2.8635640000       12.8412370000        5.1773960000
  O         0.2674500000        3.6008790000        0.1298610000
  H         0.2126860000        4.1728720000        0.9079800000
  H         1.0448810000        3.0204170000        0.4461470000
  O        20.1064930000        9.3267160000        5.6561180000
  H        19.8157830000        9.9532470000        6.3290670000
  H        20.4793640000        8.5785660000        6.1313970000
  O        12.6378930000        7.1477580000       -8.4090740000
  H        13.2589590000        7.5909400000       -7.7347400000
  H        11.9368230000        7.7890640000       -8.4558420000
  O        -3.3979920000       11.4484070000      -13.2685460000
  H        -3.4486410000       11.2597610000      -14.2324600000
  H        -3.0079330000       10.6053240000      -12.9692750000
  O        21.1697120000        6.2036430000        3.5366010000
  H        20.8707450000        5.7504220000        2.7110790000
  H        20.6748030000        5.6274570000        4.1895650000
  O         6.9515910000       -0.2285290000       -3.8977080000
  H         7.5293040000       -0.9600520000       -3.5761460000
  H         6.0858980000       -0.5248700000       -3.4988220000
  O        19.6121790000        4.6629390000       10.4308060000
  H        18.8786410000        4.3707670000        9.8495680000
  H        19.4379370000        4.1523900000       11.2357720000
  O         3.6279460000       21.6448190000        1.3912240000
  H         2.9854780000       20.9238430000        1.3351110000
  H         3.3024850000       22.2196350000        0.6304940000
  O         6.3114300000       21.6808260000       11.8110910000
  H         5.3494640000       21.8311960000       12.0545520000
  H         6.4853450000       20.7754150000       12.2645030000
  O        14.2533520000        0.1877540000       -4.6917470000
  H        14.4738670000       -0.7012950000       -5.0949230000
  H        15.0966280000        0.3470170000       -4.2441640000
  O        10.5466320000       29.1504190000        0.1519790000
  H        10.5657500000       -2.3143140000       -0.6441500000
  H        11.2868170000       -3.5397850000       -0.0328030000
  O        -1.1927500000       17.3532810000      -11.9790290000
  H        -2.1010650000       17.0604500000      -11.8065920000
  H        -1.0941310000       17.2040270000      -12.9275330000
  O        -3.6929470000       -4.1890850000        2.2259320000
  H        -3.8769190000       -5.1212090000        1.9460310000
  H        -4.3149560000       -3.7202000000        1.6491040000
  O         8.2870260000        5.6266530000      -11.7182780000
  H         8.8575770000        5.8761290000      -12.4952590000
  H         8.9181000000        5.0200840000      -11.2395470000
  O        16.7957310000        0.1313660000       -3.4907440000
  H        16.7356680000       -0.1472570000       -2.5701530000
  H        17.4437480000       -0.4550390000       -3.8602330000
  O        14.1802050000        7.6971760000       -4.3312500000
  H        14.7507780000        8.2481140000       -3.7593010000
  H        13.9122720000        8.3740160000       -4.9585830000
  O         6.7918400000        9.7727720000        9.4886970000
  H         6.1255140000        9.8432600000        8.8328990000
  H         6.3618230000        9.4260850000       10.2844470000
  O        19.9574180000       -3.6421710000       -3.5817980000
  H        20.2339760000       28.5765800000       -2.6283790000
  H        19.8153080000       -2.7523520000       -3.9399190000
  O        -6.2673900000        3.8947680000        2.1524610000
  H        -6.6612070000        4.7695810000        2.1708230000
  H        -6.9136290000        3.3205880000        2.5381220000
  O        20.7491840000       25.5592040000       -6.4868780000
  H        21.4941480000       25.3992210000       -7.0849210000
  H        21.2280790000       25.6803800000       -5.6703650000
  O        -5.6278650000       -2.5663520000       -1.6049670000
  H        -4.6238250000       -2.4701720000       -1.6340810000
  H        -5.7400630000       -2.4837960000       -0.6117940000
  O         7.7983060000        5.2810030000        4.0838910000
  H         8.1668930000        6.0648780000        4.5290060000
  H         8.2862420000        4.5384690000        4.5769370000
  O        24.0473800000        6.1973870000        7.9817430000
  H        23.8053840000        7.0951060000        8.2784830000
  H        23.1762890000        5.7413440000        8.2555120000
  O        13.7326370000       13.8204630000        7.5661440000
  H        13.4008010000       14.3330620000        8.3153570000
  H        12.9083550000       13.3513980000        7.2545730000
  O        -0.2815340000        9.6045500000        0.8828160000
  H        -0.2325800000        8.7221850000        0.5360390000
  H         0.0260400000       10.0917350000        0.0901030000
  O         4.3515160000       17.4151880000        5.8226820000
  H         4.4145480000       17.4400540000        6.7835190000
  H         3.4471500000       17.7394220000        5.7301750000
  O         8.5405710000       24.2818550000      -12.2210970000
  H         7.6906690000       24.7098980000      -12.4465250000
  H         8.3077650000       24.1187040000      -11.2531720000
  O        31.1341000000       27.0812550000      -14.7523870000
  H        31.8998360000       26.5060480000      -14.5110360000
  H        -0.4792210000       27.6869160000      -15.4075650000
  O         2.2020310000       27.0433310000       -4.7537030000
  H         1.2969420000       26.7252010000       -4.7135130000
  H         2.6455500000       26.1072100000       -4.8222920000
  O         2.1636780000       -0.7195850000        4.0481300000
  H         2.7055640000       -0.3137860000        4.7395770000
  H         1.3776870000       -0.9795290000        4.5308490000
  O        12.3421960000       -2.6501620000       -2.2206360000
  H        11.9901630000       -2.7268920000       -3.1349630000
  H        12.2211110000       -1.6614620000       -2.1352240000
  O        16.5578630000       24.5641960000      -11.4481830000
  H        16.3118360000       24.8038920000      -12.3740700000
  H        15.9803730000       23.7888410000      -11.3503500000
  O        13.1577950000       12.9577470000        0.6089540000
  H        13.1458170000       12.5654710000        1.4596540000
  H        14.1070400000       13.1666980000        0.5720460000
  O        -2.0050990000       23.1884330000        0.0399260000
  H        -2.1642190000       22.3891830000       -0.5196730000
  H        -2.5494640000       23.0066410000        0.8394200000
  O         1.6788730000       25.1566640000        4.7048640000
  H         1.9635210000       26.0747090000        4.9144130000
  H         1.8859920000       24.7164380000        5.5583290000
  O        23.7593000000       -1.4984110000      -10.0863230000
  H        23.1051710000       -0.8406270000      -10.3873110000
  H        24.5594060000       -1.1543230000      -10.5065060000
  O        -2.5298600000       15.6428530000       -4.7401070000
  H        -2.4962090000       14.6717520000       -4.7639370000
  H        -2.5351450000       15.8421600000       -5.7012610000
  O        21.3912200000        8.4502320000       -6.5474280000
  H        22.0147270000        8.4178250000       -5.7753180000
  H        21.7463020000        9.2957900000       -7.0049070000
  O        12.4332890000       -2.6202340000      -10.9857580000
  H        11.4542280000       -2.6260340000      -10.9868470000
  H        12.5499880000       -1.6917070000      -11.3842280000
  O        23.2667050000       -0.4364480000       -7.6503510000
  H        23.7987040000       -0.7420440000       -8.4112120000
  H        22.4020400000       -0.8252870000       -7.8871360000
  O        14.1038750000        9.1998820000        9.5066890000
  H        13.6885560000        9.8045110000       10.1618790000
  H        13.7885880000        9.5154140000        8.6813340000
  O        20.9954700000       18.5690020000      -12.1145580000
  H        21.4862880000       17.7559450000      -11.8008710000
  H        20.3007110000       18.6706680000      -11.4123830000
  O        10.1655650000       16.0281330000      -13.8458290000
  H         9.3269060000       15.7843590000      -13.3635150000
  H        10.3120770000       16.9161590000      -13.4905240000
  O        15.7148880000       14.1898350000        5.0291540000
  H        15.8306000000       15.2053030000        4.9809950000
  H        15.0976480000       14.1632980000        5.7896790000
  O        28.6917840000       13.5082770000        2.6830340000
  H        28.9012550000       14.3903700000        2.9445840000
  H        29.5036600000       13.0102880000        2.9611900000
  O         7.1903710000        6.2695080000       -5.8859450000
  H         6.8437010000        6.4841650000       -6.8035820000
  H         7.8966130000        7.0066290000       -5.8549520000
  O        -2.7218100000       20.7478330000       -1.3720450000
  H        -2.1089400000       20.0366080000       -1.6682720000
  H        -3.4557870000       20.2367800000       -0.9823440000
  O         9.6981070000        0.0069560000        1.9067550000
  H         9.0863240000        0.2159340000        2.6774700000
  H         9.5745950000       -0.9854720000        1.8638560000
  O         9.4203660000       10.1651030000       -0.0404570000
  H        10.2582480000       10.6710790000       -0.2054660000
  H         9.1045880000       10.5893690000        0.8081580000
  O        19.6797870000       21.1250800000        8.0948660000
  H        18.9094830000       21.3521250000        7.5540170000
  H        20.3277170000       20.9456980000        7.3393900000
  O        13.3754590000       15.7208340000      -10.5749240000
  H        12.4447570000       16.0866300000      -10.3564020000
  H        13.8918890000       16.5041980000      -10.1612210000
  O        18.2983400000       18.7507040000      -10.1047100000
  H        17.6516270000       18.5299280000       -9.4170020000
  H        18.5430930000       19.6333770000       -9.7803730000