#     Step Nr.          Time[fs]        Kin.[a.u.]          Temp[K]            Pot.[a.u.]        Cons Qty[a.u.]        UsedTime[s]
         0            0.000000         3.844830508       300.000000000     -1262.851570401     -1259.006264870         0.000000000
         1            1.000000         3.541977548       276.369338545     -1262.440781374     -1258.897514721        46.022033234
         2            2.000000         3.488206403       272.173745634     -1262.356080886     -1258.865860398        13.243393093
         3            3.000000         3.568730693       278.456802118     -1262.457427483     -1258.886017564        13.232907454
         4            4.000000         3.508568188       273.762511527     -1262.370092618     -1258.858231850        12.619833875
         5            5.000000         3.789413918       295.676018184     -1262.749850629     -1258.956567777        12.638708724
         6            6.000000         3.637284067       283.805805716     -1262.436288586     -1258.794569618        12.663046874
         7            7.000000         3.607802731       281.505469961     -1262.374385148     -1258.761631562        12.629080668
         8            8.000000         3.949936218       308.201067096     -1262.820826442     -1258.865438637        12.625319962
         9            9.000000         3.765264779       293.791737058     -1262.545584849     -1258.774349119        12.658007927
        10           10.000000         3.731144971       291.129476048     -1262.554328036     -1258.816719066        12.674112765
        11           11.000000         3.686863169       287.674306634     -1262.546291687     -1258.852498551        12.691576015
        12           12.000000         3.607924408       281.514964073     -1262.385901980     -1258.770619851        12.684718159
        13           13.000000         4.016298732       313.379124772     -1262.885466450     -1258.861397738        13.278565004
        14           14.000000         3.912455572       305.276570498     -1262.722461763     -1258.801785009        13.255235894
        15           15.000000         3.749978643       292.599008030     -1262.514845445     -1258.756197112        12.638971866
        16           16.000000         3.935466817       307.072065379     -1262.785591477     -1258.841015004        12.689219144
        17           17.000000         3.803894352       296.805880805     -1262.582971297     -1258.769513571        13.346032176
        18           18.000000         3.915022675       305.476873434     -1262.771201005     -1258.846164067        13.303176003
        19           19.000000         3.807298709       297.071512067     -1262.646235291     -1258.828462157        12.648418437
        20           20.000000         3.556354114       277.491096663     -1262.280162843     -1258.712905347        13.255331264
        21           21.000000         3.956992133       308.751617911     -1262.776340609     -1258.808047847        13.289797203
        22           22.000000         4.000725949       312.164029640     -1262.827267773     -1258.814805635        13.316844818
        23           23.000000         3.898511083       304.188525940     -1262.712678841     -1258.801970414        13.277256963
        24           24.000000         3.929525365       306.608472602     -1262.794002273     -1258.851807473        12.639401936
        25           25.000000         3.702784127       288.916568837     -1262.468543039     -1258.752618027        12.671358913
        26           26.000000         3.945616722       307.864030402     -1262.809064719     -1258.849850557        13.415297541
        27           27.000000         3.981099418       310.632633302     -1262.857539591     -1258.862353259        12.680677529
        28           28.000000         3.696972968       288.463142388     -1262.438722342     -1258.727168271        12.663309238
        29           29.000000         3.915543481       305.517510266     -1262.756361830     -1258.825763270        12.678063809
        30           30.000000         3.929508952       306.607191905     -1262.716569501     -1258.771506805        12.640675253
        31           31.000000         3.993125934       311.571024389     -1262.774099048     -1258.764895982        12.660602837
        32           32.000000         4.029625023       314.418933259     -1262.870342419     -1258.824078912        12.666277210
        33           33.000000         3.649621541       284.768459838     -1262.401261384     -1258.734436397        12.663069968
        34           34.000000         3.841439331       299.735397127     -1262.651835124     -1258.792664262        12.635763624
        35           35.000000         3.999283854       312.051507539     -1262.821066998     -1258.803498989        12.662402138
        36           36.000000         3.826131777       298.540996984     -1262.573134780     -1258.728143146        12.645415371
        37           37.000000         3.944387178       307.768093010     -1262.772465658     -1258.808641881        12.677925278
        38           38.000000         3.793622467       296.004397999     -1262.558960315     -1258.745312292        12.617200589
        39           39.000000         3.868390888       301.838342114     -1262.644210778     -1258.755214254        12.655981686
        40           40.000000         4.025309327       314.082193082     -1262.882569707     -1258.836048513        12.622441094
        41           41.000000         3.646096838       284.493438432     -1262.384939951     -1258.717017964        12.648459314
        42           42.000000         3.715240630       289.888510442     -1262.528646142     -1258.791017700        12.652067826
        43           43.000000         3.857901219       301.019866304     -1262.689065340     -1258.808219581        12.660693838
        44           44.000000         3.843838731       299.922614778     -1262.615278175     -1258.747928377        12.680556796
        45           45.000000         4.017000988       313.433919570     -1262.889549299     -1258.848452644        12.672172997
        46           46.000000         3.742962746       292.051579760     -1262.561799512     -1258.794138963        12.685128917
        47           47.000000         3.749872907       292.590757838     -1262.577997363     -1258.802856429        12.668021957
        48           48.000000         3.989813348       311.312553803     -1262.915274633     -1258.899615638        12.672059230
        49           49.000000         3.732717470       291.252173173     -1262.563860124     -1258.804702266        12.643912097
        50           50.000000         3.752407108       292.788493544     -1262.631318192     -1258.851907449        12.707586010
        51           51.000000         3.750427552       292.634035038     -1262.642822215     -1258.864843160        12.701790229
        52           52.000000         3.774846295       294.539352559     -1262.623800552     -1258.820869261        12.686066841
        53           53.000000         4.082586957       318.551385914     -1263.042423495     -1258.931199458        12.666099908
        54           54.000000         3.806669121       297.022387264     -1262.676736100     -1258.840840130        12.683010514
        55           55.000000         3.693167865       288.166242199     -1262.561467105     -1258.838512934        13.327114044
        56           56.000000         3.888217678       303.385364049     -1262.870903551     -1258.952354403        13.290512478
        57           57.000000         3.777332809       294.733367413     -1262.664869725     -1258.856651071        13.313218612
        58           58.000000         3.894098472       303.844223865     -1262.849685168     -1258.924151723        13.334151178
        59           59.000000         3.771271549       294.260426381     -1262.695659365     -1258.892398135        12.704962609
        60           60.000000         3.684887686       287.520165917     -1262.553447575     -1258.836041825        12.701084708
        61           61.000000         4.060329660       316.814719206     -1263.053720289     -1258.960342060        12.656513473
        62           62.000000         3.928974394       306.565482034     -1262.842504477     -1258.879900569        12.702045090
        63           63.000000         3.792963711       295.952997350     -1262.713529554     -1258.886355501        12.699622040
        64           64.000000         3.829450867       298.799975125     -1262.842718890     -1258.978487849        13.345793952
        65           65.000000         3.734040052       291.355370046     -1262.658026158     -1258.888644253        13.344216315
        66           66.000000         4.007406237       312.685271398     -1263.008982149     -1258.965669602        13.376267391
        67           67.000000         3.906944483       304.846557535     -1262.871298789     -1258.927844544        12.666086405
        68           68.000000         3.657116635       285.353278437     -1262.570981856     -1258.876767287        12.679499116
        69           69.000000         3.901041636       304.385977031     -1262.914251516     -1258.975546431        12.716212052
        70           70.000000         3.865164417       301.586590764     -1262.817263265     -1258.913847144        13.303910859
        71           71.000000         3.875547846       302.396776960     -1262.822888967     -1258.908494921        12.708204556
        72           72.000000         3.830693645       298.896945172     -1262.821459995     -1258.951320563        13.316584176
        73           73.000000         3.584891401       279.717771183     -1262.481723094     -1258.856813377        13.400440142
        74           74.000000         3.904453671       304.652207381     -1262.925442738     -1258.980426874        13.315941017
        75           75.000000         3.958644934       308.880580698     -1262.975581922     -1258.975795138        13.334763508
        76           76.000000         3.725762529       290.709501076     -1262.704712592     -1258.937223121        13.356766581
        77           77.000000         3.784743679       295.311614195     -1262.837629393     -1259.010599982        13.358473687
        78           78.000000         3.670692698       286.412575826     -1262.629677757     -1258.916157340        12.678912839
        79           79.000000         3.847507270       300.208859260     -1262.865127650     -1258.974270207        13.335679261
        80           80.000000         3.938340361       307.296278939     -1263.021639283     -1259.039406115        13.389762294
        81           81.000000         3.619618474       282.427415193     -1262.599198816     -1258.935149286        13.350383156
        82           82.000000         3.792953944       295.952235280     -1262.838678900     -1259.000794752        13.299222856
        83           83.000000         3.912318382       305.265865942     -1262.946111972     -1258.988353021        13.307999148
        84           84.000000         3.874545850       302.318594444     -1262.885360270     -1258.964845218        13.351656713
        85           85.000000         3.918772863       305.769488786     -1263.006657529     -1259.041374910        13.293583163
        86           86.000000         3.633369043       283.500328706     -1262.599378827     -1258.918966319        12.676067960
        87           87.000000         3.766425751       293.882324003     -1262.769448175     -1258.955483547        12.733431246
        88           88.000000         3.977435188       310.346725017     -1263.032062139     -1259.006579917        12.674071784
        89           89.000000         3.758234320       293.243172489     -1262.722975058     -1258.916166875        12.763620792
        90           90.000000         3.822802280       298.281206794     -1262.847506188     -1258.975620280        12.661463579
        91           91.000000         3.796227737       296.207679047     -1262.797327392     -1258.951506771        12.701890312
        92           92.000000         3.838991174       299.544375177     -1262.795582630     -1258.906492586        12.701468968
        93           93.000000         4.024319932       314.004993736     -1263.004241671     -1258.929295441        12.720575912
        94           94.000000         3.722136931       290.426607061     -1262.641024054     -1258.867713672        12.692645524
        95           95.000000         3.731166113       291.131125688     -1262.669559534     -1258.886705806        12.740553345
        96           96.000000         3.934884288       307.026612438     -1262.935962345     -1258.948875477        12.694081382
        97           97.000000         3.861681767       301.314850597     -1262.758777444     -1258.844354106        12.693988618
        98           98.000000         3.965455196       309.411964008     -1262.964837262     -1258.946087104        12.716124300
        99           99.000000         3.803828870       296.800771468     -1262.749457868     -1258.891762756        12.692392461
       100          100.000000         3.777919849       294.779172239     -1262.691882561     -1258.859539162        12.721981861
       101          101.000000         4.072425314       317.758504952     -1263.069554238     -1258.942128932        12.684681335
       102          102.000000         3.889518453       303.486859426     -1262.818744948     -1258.873602493        12.741256120
       103          103.000000         3.830408979       298.874733528     -1262.768450591     -1258.881795149        12.693195485
       104          104.000000         3.885721636       303.190605759     -1262.853123350     -1258.910527770        12.676337078
       105          105.000000         3.836804978       299.373793200     -1262.746286734     -1258.851968776        12.693718823
       106          106.000000         4.044457769       315.576285659     -1263.045577984     -1258.942944212        12.720760050
       107          107.000000         3.861961136       301.336648876     -1262.822806390     -1258.901967367        12.685122478
       108          108.000000         3.711414286       289.589952892     -1262.640299382     -1258.869324441        12.073501066
       109          109.000000         3.937951403       307.265929758     -1262.976787996     -1258.978597284        12.672640872
       110          110.000000         3.869510152       301.925674737     -1262.848325842     -1258.917865893        12.659902918
       111          111.000000         3.901178978       304.396693365     -1262.904300727     -1258.941450586        12.686378486
       112          112.000000         3.844287166       299.957604746     -1262.828518416     -1258.921825128        12.707816834
       113          113.000000         3.707988934       289.322683454     -1262.594968916     -1258.823852375        12.714719506
       114          114.000000         3.997931020       311.945950148     -1262.977001596     -1258.915216463        12.705174358
       115          115.000000         3.926881183       306.402155395     -1262.863301079     -1258.871789137        12.693756030
       116          116.000000         3.744550599       292.175474931     -1262.658274017     -1258.848319683        12.729119684
       117          117.000000         3.841828045       299.765727271     -1262.850733713     -1258.942742801        12.703924463
       118          118.000000         3.780507168       294.981052612     -1262.759262016     -1258.911826088        13.338241659
       119          119.000000         3.957438270       308.786428548     -1262.966532232     -1258.941386671        12.719767523
       120          120.000000         3.948438010       308.084166653     -1262.971308013     -1258.954340705        13.312451993
       121          121.000000         3.692006799       288.075647851     -1262.604573557     -1258.843220259        12.705635644
       122          122.000000         3.882947870       302.974177498     -1262.780029842     -1258.826935924        12.669916579
       123          123.000000         3.910330244       305.110737853     -1262.799669105     -1258.818357869        12.678217884
       124          124.000000         3.860674280       301.236239556     -1262.729838179     -1258.797330119        12.681189323
       125          125.000000         3.891487506       303.640498365     -1262.778176457     -1258.813989958        12.681087132
       126          126.000000         3.702185127       288.869830761     -1262.507277377     -1258.731532696        12.702521635
       127          127.000000         3.892102796       303.688507500     -1262.742803335     -1258.776289810        12.723296550
       128          128.000000         3.994248187       311.658590286     -1262.875262777     -1258.805702599        12.673983870
       129          129.000000         3.780716639       294.997396948     -1262.584079659     -1258.727130430        12.686071644
       130          130.000000         3.855431559       300.827166535     -1262.719809663     -1258.787236635        12.704151061
       131          131.000000         3.808111170       297.134905842     -1262.643316817     -1258.757142663        12.040703779
       132          132.000000         3.867565634       301.773950152     -1262.671197094     -1258.724639637        12.699313659
       133          133.000000         3.977509271       310.352505442     -1262.845321126     -1258.787853770        12.047381506
       134          134.000000         3.723196571       290.509287478     -1262.518108260     -1258.713976791        12.670473545
       135          135.000000         3.818468484       297.943054391     -1262.634934843     -1258.734578976        12.044770279
       136          136.000000         3.931179358       306.737528466     -1262.775745782     -1258.761693692        12.712820045
       137          137.000000         3.818841476       297.972157755     -1262.619050689     -1258.716327831        12.697107922
       138          138.000000         3.881457266       302.857870405     -1262.750123319     -1258.783771387        12.716507103
       139          139.000000         3.727577000       290.851078473     -1262.547918123     -1258.734431437        12.697817557
       140          140.000000         3.785007026       295.332162325     -1262.600287250     -1258.728374271        12.673464851
       141          141.000000         3.993039880       311.564309930     -1262.875080171     -1258.794098733        12.698773105
       142          142.000000         3.795544445       296.154363935     -1262.615974188     -1258.731419130        12.722986625
       143          143.000000         3.815616510       297.720523870     -1262.699427829     -1258.793747630        12.659500753
       144          144.000000         3.865720071       301.629946704     -1262.836947364     -1258.880093060        13.361412192
       145          145.000000         3.845682440       300.066473546     -1262.707701732     -1258.769794859        13.317930100
       146          146.000000         4.017450400       313.468985776     -1262.952685149     -1258.841879850        13.314767992
       147          147.000000         3.840743148       299.681076132     -1262.740235304     -1258.804967529        12.674491008
       148          148.000000         3.810858648       297.349282870     -1262.701726142     -1258.795186934        12.709745159
       149          149.000000         4.026775476       314.196592095     -1263.002267060     -1258.878612977        12.683269742
       150          150.000000         3.946370679       307.922859345     -1262.861779851     -1258.817267007        12.684206001
       151          151.000000         3.999966884       312.104802157     -1262.926171767     -1258.826763237        12.647915118
       152          152.000000         3.941383593       307.533732743     -1262.857447330     -1258.815278421        12.651538201
       153          153.000000         3.857411024       300.981617939     -1262.754483181     -1258.794932187        12.682943294
       154          154.000000         4.075583842       318.004954972     -1263.051749787     -1258.872620539        13.310713807
       155          155.000000         3.956286571       308.696565118     -1262.891437177     -1258.830126015        13.300822178
       156          156.000000         3.878984560       302.664932979     -1262.805278643     -1258.819785228        13.288405320
       157          157.000000         3.982178527       310.716832755     -1262.961268265     -1258.871062232        12.666037571
       158          158.000000         3.901141649       304.393780745     -1262.827735395     -1258.817002113        12.623512314
       159          159.000000         4.022108603       313.832450695     -1262.986296351     -1258.852988701        12.672295023
       160          160.000000         3.950991556       308.283411790     -1262.908833425     -1258.844975135        12.645846869
       161          161.000000         3.803360281       296.764208965     -1262.738888810     -1258.821002024        12.663614428
       162          162.000000         3.983850654       310.847303541     -1263.000086487     -1258.900023902        12.653115396
       163          163.000000         3.903089931       304.545799049     -1262.870771680     -1258.849722632        12.632778866
       164          164.000000         3.855828273       300.858120924     -1262.843732299     -1258.868195081        13.265870922
       165          165.000000         3.886703612       303.267226244     -1262.887610768     -1258.879429674        12.660640621
       166          166.000000         3.766142122       293.860193363     -1262.696299933     -1258.806910053        12.627900584
       167          167.000000         3.943174341       307.673459181     -1262.954117631     -1258.885902783        12.680094166
       168          168.000000         3.913206851       305.335190421     -1262.917699220     -1258.877592670        12.638313448
       169          169.000000         3.736867660       291.575999423     -1262.716271771     -1258.850667217        13.271646844
       170          170.000000         3.868320177       301.832824808     -1262.916238143     -1258.917351902        13.291186774
       171          171.000000         3.815950859       297.746612012     -1262.835559566     -1258.887178356        13.299165409
       172          172.000000         3.844144455       299.946469421     -1262.864103582     -1258.885658512        12.642553341
       173          173.000000         3.867999674       301.807816913     -1262.961889132     -1258.957690967        13.278660884
       174          174.000000         3.672907487       286.585388824     -1262.723575492     -1258.912600301        13.996976297
       175          175.000000         3.830612455       298.890610121     -1262.940247207     -1258.969718454        13.276071358
       176          176.000000         3.888154919       303.380467173     -1263.003759988     -1258.973779133        13.324620043
       177          177.000000         3.778227993       294.803215729     -1262.841396299     -1258.919428620        13.299652793
       178          178.000000         3.848470100       300.283985876     -1262.961227697     -1258.967110752        13.312075961
       179          179.000000         3.749076606       292.528624960     -1262.811049514     -1258.914418386        12.639894644
       180          180.000000         3.831721186       298.977120940     -1262.913134254     -1258.931958861        13.342318583
       181          181.000000         3.920731778       305.922336739     -1263.042537115     -1258.970400743        13.271272910
       182          182.000000         3.719706866       290.236996755     -1262.783993285     -1258.910942498        13.294896066
       183          183.000000         3.789977377       295.719983122     -1262.898956406     -1258.953738315        13.321442216
       184          184.000000         3.816883480       297.819381520     -1262.898611623     -1258.924570204        12.665564575
       185          185.000000         3.797047283       296.271625634     -1262.852352936     -1258.896228343        12.620065915
       186          186.000000         3.892344132       303.707338214     -1263.032625928     -1258.979266371        13.277317403
       187          187.000000         3.728340854       290.910679643     -1262.829981265     -1258.938695628        13.327797574
       188          188.000000         3.785695420       295.385875515     -1262.885846271     -1258.935316345        12.679590205
       189          189.000000         3.924294694       306.200339845     -1263.045744822     -1258.954682296        12.648874538
       190          190.000000         3.790583689       295.767291779     -1262.854982634     -1258.895684173        12.676996788
       191          191.000000         3.836652306       299.361880645     -1262.960730859     -1258.953442707        13.309585687
       192          192.000000         3.805629909       296.941300829     -1262.907831068     -1258.929642229        12.660135655
       193          193.000000         3.801784366       296.641245296     -1262.881930827     -1258.905679337        13.292551114
       194          194.000000         3.946106415       307.902239663     -1263.103193581     -1258.980681331        13.287847142
       195          195.000000         3.785296887       295.354779231     -1262.923418636     -1258.959769289        13.963966729
       196          196.000000         3.775842314       294.617068732     -1262.909864991     -1258.953775802        13.930893281
       197          197.000000         3.881315289       302.846792397     -1263.040754514     -1258.977286958        13.941975812
       198          198.000000         3.813127906       297.526345881     -1262.919129894     -1258.921935054        13.918297451
       199          199.000000         3.901569797       304.427187789     -1263.073948714     -1258.986398495        13.930259157
       200          200.000000         3.822556991       298.262067673     -1262.967239208     -1258.956783360        13.891486900
       201          201.000000         3.779591608       294.909614317     -1262.891974519     -1258.922604717        14.621732644
       202          202.000000         3.951774062       308.344468277     -1263.089016920     -1258.945567284        13.917304898
       203          203.000000         3.835175512       299.246651105     -1262.923824543     -1258.895055100        13.329580285
       204          204.000000         3.800815063       296.565613638     -1262.901776446     -1258.905493817        13.276187510
       205          205.000000         3.840930065       299.695660684     -1262.965700542     -1258.927443229        13.282435974
       206          206.000000         3.784857786       295.320517588     -1262.866375650     -1258.882347076        13.278223848
       207          207.000000         3.926208237       306.349647556     -1263.059042015     -1258.931815929        13.289399614
       208          208.000000         3.848718940       300.303402093     -1262.958308729     -1258.906709400        13.289061972
       209          209.000000         3.730673810       291.092712830     -1262.864615930     -1258.929257443        15.216187016
       210          210.000000         3.855889609       300.862906735     -1263.035545565     -1258.973193871        15.830789866
       211          211.000000         3.802807148       296.721049701     -1262.937749105     -1258.926700281        15.194996548
       212          212.000000         3.813385203       297.546421968     -1262.921882354     -1258.898505676        13.880273199
       213          213.000000         3.798224245       296.363460231     -1262.928699954     -1258.918756011        13.919767785
       214          214.000000         3.696501267       288.426337038     -1262.859914219     -1258.950016638        13.878942268
       215          215.000000         3.853313138       300.661872821     -1263.071209532     -1259.002848636        15.138495331
       216          216.000000         3.840060222       299.627789581     -1263.043233031     -1258.986459733        14.615430627
       217          217.000000         3.771143132       294.250406391     -1262.949237220     -1258.959751193        15.144663785
       218          218.000000         3.840876851       299.691508589     -1263.016972054     -1258.956149394        15.156988959
       219          219.000000         3.795011405       296.112772439     -1262.906805848     -1258.890260485        15.178718884
       220          220.000000         3.893779175       303.819310128     -1263.003155139     -1258.886265959        13.881110458
       221          221.000000         3.906054949       304.777150072     -1263.036289075     -1258.905534826        13.898662691
       222          222.000000         3.767601218       293.974042005     -1262.849550863     -1258.855695705        13.877906734
       223          223.000000         3.891857127       303.669338750     -1263.014933651     -1258.895297613        13.249343062
       224          224.000000         3.907944371       304.924575709     -1263.034276560     -1258.897011888        13.247189702
       225          225.000000         3.874175712       302.289713686     -1262.973096989     -1258.868070340        13.869994968
       226          226.000000         3.910957695       305.159695862     -1263.088550689     -1258.945222314        14.537613752
       227          227.000000         3.784958524       295.328377862     -1262.919133077     -1258.900311653        15.157497953