    2699
 i =    17525, time =    17525.000, E =     -1262.8517522023
  C        11.4444609363       13.9940991576       12.1656064322
  O        11.1620229719       14.9570613125       12.7566378727
  O        10.7259752233       12.3649018484       14.9448380497
  N        11.6454048780       12.9880349628       11.4270021464
  H        10.6836301876       11.4653821771       14.4713507506
  H        11.7212931721       12.0915647051       11.7969064787
  H         9.3637947225       12.1866456733       11.1998209870
  N         8.5989464619       11.9818686344       11.6329311107
  H         7.9931824492       12.0429015636       10.8513847384
  H         8.1464202637       12.6045160569       13.2042596622
  H         8.7113873044       10.9270795191       11.7159632217
  O        31.9235988205       11.6399127628        6.5071001717
  H        31.3334646514       12.0886745640        5.8599629259
  H        32.6369208153       12.3021468167        6.5739327487
  O        -3.9046784003       17.1399804783        5.0922677461
  H        -4.6272753831       17.8079243704        5.1056214968
  H        -3.9081261830       16.8744896893        6.0367765814
  O         3.8565879095        7.7934596480      -10.9882276406
  H         3.6095462816        8.6189415971      -11.4381679460
  H         3.6273047459        8.0756021763      -10.0642783575
  O        28.7896357606       20.7538155822       -4.5196696834
  H        28.0222460515       21.2949970618       -4.8479268627
  H        29.4792068392       21.2047453808       -5.1119971275
  O        23.3160845930        7.8791141994        9.7174520973
  H        22.7383739782        8.1183085926        8.9598281028
  H        22.6679303499        7.5293707625       10.3430601182
  O        22.8588813756       -2.6984591539        4.2516709328
  H        23.0101469982       -2.1716528250        5.0671389676
  H        22.5592907529       -1.9431394639        3.6675062501
  O        -3.5519813063       26.2142274870       -3.1753197862
  H        -4.4518882087       26.6386886098       -2.9975187177
  H        -2.9992903839       26.8826096401       -2.6699252365
  O        -2.0242514149        6.6055528856       -4.3049658143
  H        -2.0931044009        6.9225167166       -5.2224559563
  H        -1.8448549055        7.4611080169       -3.8277797512
  O        24.1482208673        7.0806353190       -2.5732663675
  H        24.4764385868        7.9596983486       -2.7629349319
  H        24.1502141298        6.6728924107       -3.4396858663
  O        18.3395976057       23.1464171413        0.9698997256
  H        18.5740645723       23.9725979522        1.5087469095
  H        17.3328594861       23.2413043366        1.0710074258
  O         0.4350380973        9.9392097667        3.1777600022
  H         0.1282509946        9.4685366809        3.9835449397
  H         0.9681258962       10.6321819750        3.5741883321
  O         5.4927937493       14.3582096345      -10.0958561889
  H         5.5823695425       14.3828499994      -11.0661232664
  H         4.9313480821       15.1629580758       -9.9171140322
  O        21.8527996040        5.7278696948       -7.6340773708
  H        21.8050977155        6.5310156923       -7.0485520998
  H        22.7630904646        5.8769782108       -7.9997962147
  O         3.4759927086        3.5992072222      -14.3942865699
  H         3.9425951360        3.6459309482      -13.4999682381
  H         4.0324807623        4.2502442156      -14.8474039845
  O        19.2020016474       -0.5403639602       -0.9224780524
  H        18.9800919958        0.3937665605       -1.0139282006
  H        19.9666498920       -0.5926030373       -1.5394054350
  O        13.7747023244       -4.9202813925      -11.8938331993
  H        14.2710941578       -4.0962815162      -11.9707961196
  H        12.8798113570       -4.5902125828      -11.6761860538
  O        -5.7540869466       17.5425579422       10.7430006579
  H        -6.0984938002       17.9624738806        9.9403080111
  H        -5.8769163669       18.2667493468       11.3972460019
  O        19.2119398832        2.6636786234       -4.3769923807
  H        20.0639476628        3.0626045335       -4.6395995133
  H        18.5793194126        3.2128165646       -4.8589439289
  O        19.3997349223       37.5776246350       -4.8469081621
  H        19.0363431155       37.6029728898       -5.7605206663
  H        18.9406106899       38.3209665415       -4.4357338862
  O        26.0223714159       17.4688376391      -10.1039004504
  H        25.6133385072       17.1228347285      -10.8942089148
  H        26.1405172781       18.4092719498      -10.2696591075
  O         9.0115931237       16.4811115566       -6.7082270879
  H         8.4677458046       17.2771609288       -6.8214256970
  H         9.4143456066       16.6915795218       -5.8353844530
  O        18.2842196203       28.0913100553      -14.6079458773
  H        18.4055807098       28.5143941306      -15.4818876463
  H        19.0054285046       28.4983573897      -14.0962860446
  O        24.9333545656        6.6515723051       -5.6213790494
  H        25.1819215649        7.4860542157       -5.1101077512
  H        23.9757679300        6.9117486599       -5.8025761066
  O        24.2452631337        0.7939716242       -8.0300664225
  H        23.4926769888        1.1631689567       -7.5384332705
  H        24.1728383055        1.2266170382       -8.8868772675
  O        -0.2990725586        6.8476256048      -11.1275063830
  H        -0.8471135639        7.2669910903      -11.8756430028
  H         0.4154101137        6.4582222324      -11.7134675894
  O        20.5121453762       11.8307723476       -0.5982676168
  H        21.2856451953       12.3661728963       -0.7718345809
  H        19.9234475289       12.0042187461       -1.3269961204
  O        15.3570852615        7.3731500816        2.2515872824
  H        15.8736453415        8.2040677219        2.2673130158
  H        14.4439133507        7.7369188625        2.1105915723
  O        -4.5060652078       15.8409174858        2.3392628248
  H        -3.5320964173       16.0068372220        2.4047392716
  H        -4.7863903231       16.7642273844        2.1423049541
  O        19.6359104032        4.3843684094       -8.8563685843
  H        19.2419357439        4.7888960873       -9.6511430505
  H        20.3328852862        5.0448662561       -8.6630785280
  O        15.6145259291        2.7610677425       -3.9917240116
  H        15.9917589868        3.3420337255       -3.2898464793
  H        14.8671281267        3.3398932685       -4.2567661542
  O        27.4863182269       -1.1106818624        4.6158421903
  H        28.3488363053       -0.9180933639        5.0171168669
  H        26.8861573315       -0.8503617678        5.3319532896
  O        -4.8320978275        8.3837435052      -12.1548110144
  H        -4.4810855977        8.9023324917      -12.8905164849
  H        -5.6300074965        8.8752909703      -11.9200449642
  O        26.8209156177        4.1220532571        9.2406381272
  H        27.3186937588        3.8881708069       10.0374155665
  H        26.4457002199       37.0043355688        9.4803788413
  O         0.3597768406       -6.0378822652       10.4979553575
  H         1.1892045001       -5.6524867282       10.8281142982
  H         0.6430966010       -6.8487969672       10.0607390370
  O         7.5444521817       12.6037449377       -3.4443612530
  H         7.4533169354       13.3295205585       -4.0899641985
  H         7.8513950867       11.8722730616       -4.0716816379
  O         8.0036552005       -7.3036625014      -11.5414153100
  H         8.6703628097       -6.6900871583      -11.1489382720
  H         8.4709984164       -8.1504702853      -11.4725017038
  O        25.1194603843       16.7583745218        6.5408740379
  H        25.3169544783       17.1887592720        7.3747419311
  H        24.5222766909       17.3757246402        6.1004999233
  O        25.6643043176        9.9850125016        1.9119939146
  H        24.6974190270       10.1209849705        1.9129781727
  H        25.9543672602       10.8858439989        2.0850209112
  O        29.8337165495        7.7547609655       -6.7217995639
  H        29.1447821356        7.2130177475       -7.1730734108
  H        29.5261795036        8.6626296555       -6.8682751824
  O         4.8574403402        5.9190034901      -15.2203151898
  H         4.7062131568        6.7341759364      -15.6985640879
  H         4.9005783789        6.2226125308      -14.3029471298
  O         9.6375723869        3.1896429604        2.7986132430
  H         8.7558665997        3.5133338748        2.7688150597
  H         9.7471635455        2.8299660732        1.8959753401
  O        11.0842699349       -1.3713225792       -1.7691804585
  H        12.0396354441       -1.2927018893       -2.0387747506
  H        11.1957464136       -0.7888296637       -0.9227697342
  O         7.1504712970        2.1066628444      -14.2405400969
  H         7.1400132319        1.9281503495      -13.2602782764
  H         6.3961672732        1.6113926910      -14.5293681986
  O        23.2037074568       -0.1499891639        2.7974817915
  H        22.7534568672        0.6749212894        3.1075426962
  H        23.9883785474        0.2464425794        2.3477912349
  O        13.2703753012       11.8420631109        0.7053427419
  H        13.1975940955       12.7503071424        0.3305908624
  H        14.2872775224       11.8153082741        0.7920221118
  O         6.0307726886        8.8231728355       -3.8551490397
  H         6.0721420702        8.5743235185       -4.8000362356
  H         5.8512532618        9.7936116162       -3.9725835058
  O        10.5789452902       20.0344487134       -4.7779160581
  H        11.1771971006       20.8192373237       -4.8130463947
  H        10.1763771114       20.1893845071       -3.8977109540
  O        22.9864729079        2.9777130518        7.6803363083
  H        23.4957574626        2.2650542585        7.1930391286
  H        23.5484035646        3.7422670210        7.3378658201
  O         9.5314367537        9.5535321205        7.7574170158
  H         8.8508043521        9.4667798331        7.1130754173
  H        10.1723517127        8.8224003758        7.4617684465
  O        12.7362647637       -5.0065407534       -6.2691596611
  H        12.4542511524       -4.8223201951       -5.3553463957
  H        12.8713128703       -4.1012748009       -6.6163031981
  O        16.8946121623       14.6163119481       -1.7241918381
  H        17.3586250467       15.1048660495       -1.0029171515
  H        16.3442631030       15.3976324270       -2.0564208309
  O        14.1933566319       18.1485755259        8.6628411134
  H        14.2479681946       17.7013494585        7.8269592618
  H        14.3690410876       17.4472588109        9.3294444539
  O         7.2813772684       18.4622932246        3.6965994750
  H         6.8574472187       17.7769859661        4.2345127233
  H         8.1131555884       17.9944173341        3.4816063230
  O         1.7877321267       26.8732095125       -5.7457617820
  H         2.5097311053       27.5394214422       -5.7464124868
  H         1.1989011704       27.2561558495       -5.0811956402
  O         9.4404892049       -3.9370887746      -13.5664586130
  H         8.6036062706       -4.2696213702      -13.2219175337
  H         9.7876558501       -4.6887177350      -14.1051620690
  O        18.1583169739       18.0010704288        5.6705936261
  H        17.6066879638       17.1733952754        5.6128865534
  H        19.0646212508       17.7635155109        5.9555765940
  O         7.5106454303       -0.6526414614        1.3077879378
  H         7.7984855303       -0.4075119792        0.4355356832
  H         7.3366458111        0.2305478411        1.6806721753
  O        14.0696104461        4.8282684508      -12.4341690509
  H        15.0156461610        4.7944397746      -12.3159219104
  H        13.9464427315        5.8101915763      -12.3646747003
  O        21.4682617555       25.0610004945      -12.1571296805
  H        21.7451501552       25.9707550286      -12.3700807063
  H        21.3973393132       25.1800541232      -11.1426973891
  O        10.2822897595      -10.3876551905       -2.4435319237
  H        10.7876606794       21.7393191892       -1.6273936292
  H         9.5833803279       -9.6925407629       -2.3680887431
  O         6.9988383705       17.5056389967       -0.0203252162
  H         6.5075161766       18.1742362478        0.5143788724
  H         7.6574375924       18.1337979195       -0.4323529807
  O        22.9688617886       17.9949815489        4.9342640538
  H        22.6565301727       18.8530670142        5.3604358261
  H        23.4618189150       18.4354033239        4.1646825288
  O         6.9348882887        5.4149741583        0.2443518700
  H         5.9622039496        5.5924428104        0.2894952087
  H         7.1832175513        6.0760016985       -0.4397481825
  O        34.2577247640        0.8217598971       10.1592792937
  H        33.9403308976        1.5352834397        9.5378156661
  H        33.3625192573        0.3271670411       10.2532343904
  O        -0.2124791815       -0.7664381467       -1.1131742095
  H         0.1260124491       -0.0206326054       -0.5302208924
  H        -0.5891393025       -0.2213526619       -1.8310068973
  O        17.2610383504       19.8623669862        2.8035182940
  H        16.3022231695       19.7397703484        2.9943378965
  H        17.4016250108       20.7280494002        3.2521424323
  O        17.3861790432       27.3188432573        1.8072996595
  H        17.6450771688       28.2462746705        1.9817693601
  H        16.4767920630       27.3293378217        2.1678606138
  O        18.0787735871        1.9625226125       -1.6753559323
  H        18.6630507032        2.1914961882       -2.4415369767
  H        17.8761251324        2.8358390760       -1.3348850888
  O        11.0280413019       -1.1649054395       10.2391096271
  H        11.8889869489       -1.5025766170       10.5552087890
  H        10.6883391563       -0.7257727863       11.0376039911
  O         1.6054636323       24.4944468896        8.5046914485
  H         2.5011490812       24.8199496822        8.6830035111
  H         1.1714579649       25.2880581478        8.1527373692
  O        -3.2849489867       -5.6045892684       -9.6192391975
  H        -3.8774810436       -4.8144422425       -9.5969495464
  H        -2.5261944992       -5.2575655313       -9.0895248523
  O         9.2419006580        9.0116759602      -13.8649775465
  H         9.1482716166        8.0208414997      -13.8525654759
  H        10.2091449509        9.0680641747      -14.0242378886
  O         9.8300085916       -0.5316513387       -5.1520783885
  H        10.5792953304        0.0960051933       -5.3248812252
  H         9.1147293886        0.0909540259       -5.4447602669
  O        30.0879236196       10.3153672761      -13.0472955445
  H        30.4745340521       10.5824328878      -12.1891366795
  H        30.1245716354       11.1884905684      -13.5171597644
  O        16.4162004749       15.3001874082        5.1696188368
  H        16.5549703613       14.6643009073        4.4628087002
  H        16.8891053680       14.8790562806        5.9554742668
  O        12.0446002075        8.3567095216       -2.0098432941
  H        13.0350267067        8.4217010115       -2.0281096139
  H        11.7598437870        9.2492123013       -2.2441512708
  O         9.5407505910       15.8961542164       -9.2921196041
  H         9.1352670095       16.2630392405       -8.4609888556
  H        10.4506882250       15.6786347873       -8.9192791121
  O        16.4660929575        4.9919218111       -2.8007210544
  H        16.6021878365        5.5247297662       -2.0324681989
  H        16.2223682777        5.6431140682       -3.4927454234
  O        20.0000768526        1.8918182907      -11.9550732928
  H        19.6740369197        2.5572688680      -12.6391469730
  H        20.9048002659        1.7426315033      -12.3549659544
  O         9.3391352957       18.7885191150       -1.1572108705
  H         9.5059986328       19.1249001888       -0.2495620915
  H         9.5015404814       19.6255713650       -1.6350252646
  O        26.4156963761        2.6845748734       -7.5479127681
  H        25.9470001642        2.9683536565       -6.7340073060
  H        25.7639221068        2.1008374086       -7.9665934611
  O         9.6453497414       23.5560940660       -7.4189253515
  H         8.9136815270       23.9464069097       -6.9093581251
  H        10.2113680846       24.3317517703       -7.5373969171
  O        19.2949985137       10.8668892430        5.6767277955
  H        20.1991894058       11.1466462007        5.2489181927
  H        18.7577117880       10.4500373911        4.9160974399
  O        15.4258295036       19.7197678675        5.9671757259
  H        14.8515453089       19.0966962072        5.4402036436
  H        16.2347538759       19.1648989198        6.0788615080
  O         9.9506873398        1.2495120867        4.8416135087
  H         9.6958845392        1.6711100516        4.0061276063
  H         9.1323672875        1.3767454220        5.3788802047
  O        20.7927277826       12.7737042436        9.3628011145
  H        21.7644857774       12.6215191293        9.2775266133
  H        20.1798818109       12.0832143634        9.1931957473
  O        23.0078522066       24.7554395572       -3.3027529484
  H        22.9545427467       25.5645716792       -2.7982652857
  H        22.0650502053       24.5118802425       -3.3621391541
  O         7.0088192012       15.3279095214       -5.1539843125
  H         7.3693421503       15.5836656347       -4.2542587622
  H         7.7886394286       15.6516707233       -5.6983377672
  O         0.8933573982       -0.6490023588        2.8972421861
  H         1.2131085379        0.2897510429        2.7298658458
  H        -0.0876258161       -0.4210675575        2.8338429448
  O         5.5424460759       -1.9039972912        3.3056579420
  H         6.2755278033       -1.7801046349        2.6501778810
  H         5.1847209674       -0.9743215523        3.2107225586
  O         0.1574257861        4.7939695718        0.0095261827
  H         0.1973801212        4.1082501094       -0.7050102588
  H         0.1287640092        5.6019730941       -0.5936485146
  O        14.9581589635       10.5486599503        2.6785540665
  H        14.3151695251        9.8689872422        2.5690153715
  H        15.7513553991       10.1724677757        2.2098952499
  O        18.7695755418       35.5570128938      -13.5434074637
  H        18.0071498943       35.2023413325      -14.0269990031
  H        18.5678354773       36.5204721052      -13.6034690030
  O         6.2083179832       -2.4924153731      -10.3011219635
  H         5.3432990675       -2.8131381241       -9.9207678475
  H         5.8715361424       -1.7740650038      -10.8936448694
  O        15.7592960412       32.6708454630       -1.0045979308
  H        15.3539609044        1.5486947541       -0.7618038780
  H        16.6136022259       32.9898294224       -1.3555677536
  O        20.2067548892       21.1946060202        1.8186715736
  H        19.9510573920       21.9205439920        1.2091173152
  H        19.6009287364       21.4325750538        2.5728432942
  O         7.2427288302        1.2521413515        8.8748449128
  H         6.3956191483        1.7486893045        8.7120902435
  H         6.8477854153        0.3692246816        9.0633974138
  O        17.6003789670       -5.8600540408       -0.6178611569
  H        17.4960150519       -5.6186151458        0.3317016554
  H        17.3123242100       26.9647749900       -1.0293197406
  O         1.4296098935       12.5500851192        3.2045542051
  H         0.8144255344       13.1980054131        2.7745132149
  H         2.2122682130       12.5403231989        2.6563519531
  O         9.4567637471        7.1794194020       -3.6676778936
  H         9.4681082324        8.0075996462       -4.1741990130
  H        10.0306585876        6.6106648030       -4.2492131905
  O        14.8754855717       11.3269248904        6.4492655607
  H        15.1729142759       10.6594436114        5.7595366736
  H        14.6985197828       10.7942142015        7.2703100818
  O        14.7561628803        7.2448116792       -7.2340069025
  H        14.0911441125        6.9218001496       -7.8802883931
  H        14.1560788357        7.7293859814       -6.6439805676
  O         2.2931995519       15.0891610967      -11.5691694667
  H         2.2810729347       15.4659464686      -12.4585451848
  H         2.9673449552       15.6283196754      -11.1100202031
  O        23.8387001662        3.2679762649        1.1494678424
  H        23.3050545058        3.2266061196        0.3151047919
  H        24.3050892289        4.1112001532        0.9610913070
  O         7.7494370836        3.0726500875       -0.9703206673
  H         7.4318229254        3.9372544670       -0.6558750167
  H         7.7415410809        3.2433196840       -1.9584394923
  O        15.7344170239        1.5299411313        9.0829659894
  H        16.4740799710        0.9504685866        8.7953406026
  H        15.6042593548        1.1834902719       10.0003927717
  O         5.4579062242       19.1887106692        1.2944336788
  H         4.7689000729       19.6663152985        1.8428911209
  H         6.0905086073       18.9995781693        2.0231512937
  O         5.3487174973       20.3993867669        9.3284697855
  H         5.6747940628       21.2040190920        8.9079915192
  H         4.6765058251       20.6829696425        9.9726935829
  O        13.5413245790        4.0132210089       -4.9128460727
  H        13.8749407731        3.7572211632       -5.8318757113
  H        13.1014364800        4.8825773102       -5.1575541121
  O         4.8714317719       27.4330360560       -7.7655371762
  H         4.2688833830       -3.8848048484       -8.0192254734
  H         5.1682471287       -4.2748976615       -6.8937957674
  O        -5.3749860768       20.5965970023      -13.3662724340
  H        -4.4023473323       20.7509263072      -13.4418805960
  H        -5.5675224695       21.4750805555      -12.9932363794
  O       -16.7530793618       -6.3989260959       -3.0336515932
  H       -16.9544558511       -5.4385522573       -3.0820537757
  H       -16.0987832208       -6.4310381525       -2.3279721095
  O        11.1459966563        3.9371985312       -8.6152946226
  H        11.9068705870        4.5167124445       -8.8648249278
  H        10.6573243222        3.9137298282       -9.4572081043
  O        15.7323327336       -1.5938401512       -6.7168139873
  H        16.3221399571       -0.8251555111       -6.9580799345
  H        15.0764601896       -1.1057483976       -6.1708667145
  O        13.3413534569       13.1025362320       -5.0244392827
  H        13.7647275769       13.0408454595       -5.8966880431
  H        13.7094665948       13.9344202293       -4.6665291106
  O        10.9780992910        3.1416773302        9.4089937266
  H        11.1989195003        3.6214608923        8.6074404662
  H        10.7995192927        2.2295068201        9.0223591479
  O        22.6884839049       -4.5305806633       -2.0916350894
  H        23.1295806174       28.1838306307       -1.6381683529
  H        22.1914694975       -4.9630922939       -1.3854071862
  O         3.0320420610        6.2022572812       -7.3105128646
  H         2.0770226652        6.2603170408       -7.0230102015
  H         3.1726348470        7.1144848883       -7.5700327786
  O        20.8152650437       31.0916520698       -8.2345174845
  H        21.1705087913       31.4179230926       -7.3814204066
  H        20.8547344381       31.8642123113       -8.8072866272
  O        -0.8514548534       -2.4558128591       -6.6139124193
  H        -1.6134978240       -3.0073834355       -6.3385055549
  H        -0.9974402557       -1.6654586726       -6.0511237542
  O         7.2789230728        4.2077783942        2.7593930599
  H         7.4957670690        4.7837805261        1.9784869921
  H         6.4104677419        4.5803366303        2.9686665399
  O        30.3893375148        3.9160390437        1.9508948608
  H        29.5620325518        4.3894360594        1.8063768188
  H        31.0286176402        4.5267500288        1.5330680355
  O        20.6245729676        9.8281869229       12.0341535189
  H        20.0006646828        9.6333045014       11.3188707387
  H        20.0961642428       10.3558217671       12.6395674391
  O         1.4579603919       10.7574273113       -1.1281994000
  H         0.7827074685       10.7245439265       -0.4016547911
  H         1.9109624751       11.5769418094       -0.9481559806
  O         5.4671516309       22.8827632889        6.1187609082
  H         5.1113088060       22.0245400542        5.7670419079
  H         6.2109966678       22.6048480782        6.6558015490
  O        11.1382831608       28.0035416508      -11.3189542016
  H        10.6694033535       28.1020181317      -12.1406846676
  H        10.6246232117       27.2416334573      -10.9319693921
  O        28.7778498127       24.3496017225       -7.5997105011
  H        28.7661324019       24.8051310125       -8.4747333901
  H        -3.3606123739       25.1294769303       -7.0050184803
  O         4.6682504038       28.4666791296       -5.2305187582
  H         4.3372317389       28.7770505258       -4.3315599188
  H         5.2021408474       29.2954405864       -5.4254058741
  O        -5.2141656588        5.3533962561        6.8604416579
  H        -5.1505470619        4.7104165819        7.6049000533
  H        -4.5545296302        6.0231569517        7.1658997237
  O        16.4456947056        1.4579167278       -6.3219489213
  H        15.7938841745        2.0450859475       -6.7188022410
  H        16.4248021516        1.8061764674       -5.4011156466
  O        11.9453451044       22.0172924044       -6.3459860808
  H        11.4818199931       22.5881033584       -6.9941278186
  H        11.9881883796       22.6122570416       -5.5772950715
  O        11.0160663307       10.3563602279        0.0871440253
  H        11.6792010003       11.0323206679        0.0703118318
  H        10.2113260289       10.8360423763       -0.0032484062
  O        -2.3111037830       22.7165210938        4.6702274439
  H        -2.9689696433       23.4230038482        4.8487309324
  H        -1.4987585831       23.0899998060        5.0187914015
  O         0.4030926169       33.4584938352        0.3393867986
  H        -0.1888368376       34.2052671773        0.4928508140
  H         1.1720371873       33.9554022977       -0.0320533823
  O        16.7818808943       -0.8841908743      -13.7821083392
  H        17.7493746672       -0.6996970616      -13.9522076731
  H        16.4583466621        0.0657867484      -13.7357073222
  O         3.7911869024       16.3625693218       -9.8211982535
  H         4.2419258661       17.2246862765       -9.6107952234
  H         2.9010552513       16.5780704143       -9.4977059785
  O        22.6957742568       10.1139254420      -10.7347959620
  H        23.3613934245        9.9906692332      -10.0104192955
  H        22.9257158041       10.9416661980      -11.1294933928
  O        11.9137635190        2.9078484103      -11.3910682716
  H        11.2705998611        3.0003922624      -12.1508676723
  H        12.0557949429        3.8506932121      -11.1924319284
  O        22.4709328947        1.5553563815      -12.7518377688
  H        23.2204411384        1.6127095073      -13.4050723597
  H        22.5954594978        2.4709932037      -12.3339260129
  O        12.0185225678        8.0663579688        7.4189196504
  H        12.1857707404        8.3849733792        6.4812137358
  H        11.9762057930        7.1275478664        7.5196792883
  O        20.9731777238       24.0593174340       -6.0575000615
  H        20.6451403082       24.7929062843       -6.5833007822
  H        20.2268601366       23.4388581592       -6.0500421973
  O        17.1073500212       21.0153630098      -10.8490282615
  H        17.3895818570       20.7818790237       -9.8929428629
  H        17.9132699768       20.6994926833      -11.3212538930
  O        19.2799804837       15.5246076889       12.5423348967
  H        18.5021737855       15.0061471930       12.3310417909
  H        19.6927776499       15.1552358917       13.2484524261
  O        30.4993072743       16.3617750906       -7.3666599180
  H        31.0197107979       17.1651770996       -7.1143038338
  H        31.1845056313       15.8886784153       -7.9182046401
  O         5.1318612881       -0.5500495163      -11.5652856603
  H         4.3298142268       -0.0081327151      -11.4558776044
  H         5.1646185278       -0.6206027627      -12.5271457648
  O        -9.8851147887       13.6332659678       -2.2490047358
  H       -10.3285409394       14.4025664406       -1.7885100386
  H        -9.0815907054       14.0329673747       -2.5637502319
  O        10.2510131822        2.0630201991        0.1341909732
  H        10.9925246191        2.4840144253       -0.3290051255
  H         9.5257339254        2.3878838888       -0.4422522641
  O         3.5743296786       16.7533792195       -6.6467823491
  H         3.5205306724       17.5509335351       -6.0603352064
  H         4.2890563207       17.1161984298       -7.2718462169
  O        14.9963907664       10.2885579317       12.4394106803
  H        15.6961607826       10.0710652889       11.8334722376
  H        14.3488497509       10.4927933811       11.8227698485
  O         4.5287450138       11.5059997988      -10.1396145600
  H         3.8299700791       11.6737688590       -9.4554035766