#     Step Nr.          Time[fs]        Kin.[a.u.]          Temp[K]            Pot.[a.u.]        Cons Qty[a.u.]        UsedTime[s]
         0            0.000000         3.843405441       300.000000000     -1336.995234380     -1333.151353917         0.000000000
         1            1.000000         3.571849838       278.803516252     -1336.630635737     -1333.057492813        53.845285858
         2            2.000000         3.523937615       275.063690454     -1336.581025008     -1333.055056546        13.731015857
         3            3.000000         3.634422920       283.687706840     -1336.721921581     -1333.084779587        13.657364903
         4            4.000000         3.595372576       280.639601862     -1336.608463515     -1333.009719277        13.672172374
         5            5.000000         3.828526355       298.838601344     -1336.895211066     -1333.062684446        13.704402878
         6            6.000000         3.694001375       288.338149445     -1336.691749808     -1332.993122737        14.460739586
         7            7.000000         3.650390091       284.934036725     -1336.624496403     -1332.968896260        13.735899978
         8            8.000000         3.959528268       309.064057536     -1337.026603053     -1333.061288699        13.724885787
         9            9.000000         3.807007616       297.158939439     -1336.786919569     -1332.973525946        13.695813204
        10           10.000000         3.745997633       292.396757763     -1336.736088037     -1332.983125587        12.986625808
        11           11.000000         3.711627639       289.713981141     -1336.710075847     -1332.990929903        12.952140999
        12           12.000000         3.668351394       286.336020258     -1336.591623676     -1332.915231489        13.029629700
        13           13.000000         4.051900167       316.274217921     -1337.074567008     -1333.014103624        12.943988090
        14           14.000000         3.975787655       310.333196628     -1336.953806492     -1332.968880635        12.959926888
        15           15.000000         3.805488363       297.040352964     -1336.741893808     -1332.926685079        12.994997838
        16           16.000000         3.963919106       309.406787754     -1336.980219323     -1333.005997410        12.940406604
        17           17.000000         3.863555650       301.572840190     -1336.834957096     -1332.960493516        13.710313251
        18           18.000000         3.923547945       306.255585430     -1336.942346976     -1333.007280380        13.006246867
        19           19.000000         3.785519139       295.481639661     -1336.812603807     -1333.014949797        13.691511426
        20           20.000000         3.565556108       278.312254285     -1336.517691666     -1332.939425320        13.687293631
        21           21.000000         3.932591910       306.961519122     -1337.004169495     -1333.058320258        13.726729034
        22           22.000000         3.972166748       310.050563899     -1337.023305556     -1333.037293933        13.666188846
        23           23.000000         3.824656554       298.536541025     -1336.874229106     -1333.035126206        13.697687957
        24           24.000000         3.813595411       297.673154938     -1336.919685199     -1333.091053796        13.656760835
        25           25.000000         3.635987715       283.809848099     -1336.663390332     -1333.011800534        13.661772264
        26           26.000000         3.863981783       301.606102318     -1336.955697813     -1333.075574169        13.681633274
        27           27.000000         3.880195582       302.871683050     -1336.998632453     -1333.101737962        13.659179452
        28           28.000000         3.578507524       279.323187092     -1336.598581420     -1333.002838084        13.657981258
        29           29.000000         3.778553515       294.937932437     -1336.898060644     -1333.101780110        13.731777058
        30           30.000000         3.838509723       299.617860925     -1336.934097432     -1333.077367479        13.660276549
        31           31.000000         3.870782503       302.136937833     -1336.959709150     -1333.070208101        13.618593370
        32           32.000000         3.878382361       302.730150662     -1337.022607476     -1333.124999940        13.747888302
        33           33.000000         3.540796460       276.379620704     -1336.576980469     -1333.016474229        13.679798244
        34           34.000000         3.747711935       292.530568970     -1336.853793513     -1333.085939924        12.936254038
        35           35.000000         3.955475935       308.747749496     -1337.082285349     -1333.106229342        13.691458781
        36           36.000000         3.785001544       295.441238364     -1336.827920809     -1333.021884775        13.680509109
        37           37.000000         3.852823937       300.735168028     -1336.941243905     -1333.066941834        13.682542762
        38           38.000000         3.766086016       293.964772111     -1336.800197414     -1333.012191717        12.976860142
        39           39.000000         3.885351699       303.274147774     -1336.919198597     -1333.011493108        12.929129912
        40           40.000000         4.047076556       315.897707177     -1337.143265079     -1333.073373748        12.995989457
        41           41.000000         3.710268966       289.607928923     -1336.686245934     -1332.952681965        12.942075012
        42           42.000000         3.786572852       295.563888027     -1336.800151847     -1332.989834624        12.970365982
        43           43.000000         3.975432120       310.305445015     -1337.010255807     -1333.010621425        13.687117953
        44           44.000000         3.977679447       310.480861902     -1336.966717691     -1332.964343123        13.661465038
        45           45.000000         4.088030355       319.094387862     -1337.146748132     -1333.033490278        13.677122391
        46           46.000000         3.812871846       297.616676467     -1336.786666435     -1332.948004047        13.623559064
        47           47.000000         3.821037424       298.254047045     -1336.795555060     -1332.948180353        13.642005318
        48           48.000000         4.072602514       317.890155672     -1337.145310148     -1333.045801524        13.708819723
        49           49.000000         3.843418260       300.001000536     -1336.828856496     -1332.957925468        13.682076778
        50           50.000000         3.825763036       298.622908307     -1336.850018438     -1332.996147623        14.359386693
        51           51.000000         3.826089917       298.648423284     -1336.828802085     -1332.974011939        13.643810119
        52           52.000000         3.838816264       299.641788195     -1336.810458335     -1332.942349637        13.668532791
        53           53.000000         4.094369985       319.589232590     -1337.182780207     -1333.058497315        13.636425931
        54           54.000000         3.819470378       298.131730012     -1336.830951699     -1332.980909755        13.639828392
        55           55.000000         3.665411400       286.106536707     -1336.658776152     -1332.962169529        13.648703070
        56           56.000000         3.866093608       301.770942517     -1336.921969887     -1333.024077763        13.658750889
        57           57.000000         3.801501290       296.729138911     -1336.808955748     -1332.975041596        13.630788678
        58           58.000000         3.883338415       303.116999296     -1336.935703858     -1333.019339369        13.662694986
        59           59.000000         3.736710103       291.671812411     -1336.782438533     -1333.012089815        13.638177263
        60           60.000000         3.601236401       281.097307263     -1336.591405996     -1332.955958932        12.977913543
        61           61.000000         3.935112212       307.158243314     -1337.032619597     -1333.062743321        12.946671760
        62           62.000000         3.838405717       299.609742623     -1336.883227864     -1333.009477276        12.949637167
        63           63.000000         3.681740661       287.381129872     -1336.709983507     -1332.992336215        12.951713304
        64           64.000000         3.706029054       289.276979245     -1336.812942727     -1333.070479818        13.662155791
        65           65.000000         3.646414284       284.623702072     -1336.692444523     -1333.009097781        13.627246168
        66           66.000000         3.932870789       306.983287277     -1337.059534115     -1333.089245255        13.674784843
        67           67.000000         3.876148929       302.555818399     -1337.002471908     -1333.088392895        13.613942589
        68           68.000000         3.624231239       282.892187194     -1336.672897714     -1333.010240655        14.335493922
        69           69.000000         3.830733248       299.010862087     -1336.955434586     -1333.085812315        14.319979088
        70           70.000000         3.842971382       299.966119184     -1336.922719753     -1333.040387628        14.350157463
        71           71.000000         3.883809653       303.153782129     -1336.963986496     -1333.040338255        13.648992114
        72           72.000000         3.866112330       301.772403835     -1336.978763876     -1333.072324716        13.629625592
        73           73.000000         3.631433675       283.454378990     -1336.659359292     -1332.987124862        13.665295160
        74           74.000000         3.902421364       304.606533724     -1337.003475181     -1333.059803945        13.667261085
        75           75.000000         3.995220823       311.850067623     -1337.089412586     -1333.052460946        13.636555437
        76           76.000000         3.811566797       297.514809823     -1336.848760360     -1332.994961137        13.640182605
        77           77.000000         3.875395736       302.497027355     -1336.978967148     -1333.060842542        13.665402767
        78           78.000000         3.778776676       294.955351435     -1336.826786843     -1333.004781921        14.330698621
        79           79.000000         3.926081373       306.453334134     -1337.010445966     -1333.040637735        14.342274852
        80           80.000000         4.003956917       312.531970226     -1337.125627568     -1333.077412383        13.644650447
        81           81.000000         3.685567638       287.679847536     -1336.728599518     -1332.998233188        14.309406729
        82           82.000000         3.820823428       298.237343375     -1336.927428805     -1333.061295889        14.376319892
        83           83.000000         3.941552438       307.660940099     -1337.062406401     -1333.075017972        14.336703593
        84           84.000000         3.892666018       303.845072637     -1336.977854138     -1333.038801887        14.358835107
        85           85.000000         3.950455511       308.355876418     -1337.099465824     -1333.102056949        14.391563963
        86           86.000000         3.733434812       291.416156995     -1336.794709900     -1333.013748108        13.643277763
        87           87.000000         3.861425837       301.406596002     -1336.957705669     -1333.048195522        13.619000346
        88           88.000000         4.070897956       317.757105140     -1337.239745408     -1333.120171249        13.630263576
        89           89.000000         3.830793051       299.015530040     -1336.927504595     -1333.047406923        14.359732735
        90           90.000000         3.839516121       299.696416111     -1336.978327156     -1333.088888416        14.387439488
        91           91.000000         3.843800859       300.030864656     -1336.958466826     -1333.064121005        13.665137436
        92           92.000000         3.903636494       304.701381674     -1337.010165292     -1333.055350486        14.333593115
        93           93.000000         4.084803694       318.842528280     -1337.263630322     -1333.126974816        13.640632671
        94           94.000000         3.817247904       297.958253067     -1336.913839734     -1333.044031285        13.681120598
        95           95.000000         3.805732517       297.059410616     -1336.913684581     -1333.054701511        13.677140411
        96           96.000000         3.987779795       311.269252433     -1337.149679288     -1333.107941037        14.369354815
        97           97.000000         3.905978107       304.884158070     -1337.014989621     -1333.054307986        15.145814675
        98           98.000000         3.962412080       309.289155714     -1337.133909316     -1333.116028979        15.070786462
        99           99.000000         3.792061779       295.992330537     -1336.922592592     -1333.074284974        15.148879562
       100          100.000000         3.745714848       292.374684816     -1336.849753698     -1333.047038367        15.764707607
       101          101.000000         4.023071181       314.023949020     -1337.215334174     -1333.134490268        15.099191091
       102          102.000000         3.862707345       301.506625129     -1336.987031866     -1333.065736366        15.161581120
       103          103.000000         3.775716251       294.716467604     -1336.906777775     -1333.071671484        15.102007388
       104          104.000000         3.821266948       298.271962651     -1336.951911084     -1333.070460375        14.391399599
       105          105.000000         3.777953326       294.891084225     -1336.837407428     -1332.998476613        13.694645554
       106          106.000000         3.988241519       311.305292633     -1337.111544559     -1333.061514576        13.644684772
       107          107.000000         3.848008349       300.359283534     -1336.927035168     -1333.016392896        13.614201783
       108          108.000000         3.685725364       287.692158958     -1336.720188758     -1332.971009415        13.690594939
       109          109.000000         3.904801596       304.792324559     -1337.027819840     -1333.058753027        13.648031361
       110          110.000000         3.858154458       301.151245966     -1336.931591542     -1333.008329516        13.676634193
       111          111.000000         3.864143738       301.618743888     -1336.968785384     -1333.038684692        13.676338106
       112          112.000000         3.822543557       298.371609377     -1336.919146225     -1333.029790038        12.899067510
       113          113.000000         3.687266749       287.812472956     -1336.737722327     -1332.982806059        13.652257288
       114          114.000000         3.957127336       308.876650869     -1337.093269052     -1333.067653980        13.678234469
       115          115.000000         3.947501513       308.125299832     -1337.049691731     -1333.032811881        13.651695894
       116          116.000000         3.785124947       295.450870721     -1336.822759138     -1332.967359767        14.362671892
       117          117.000000         3.858478310       301.176524512     -1336.901040499     -1332.971399740        14.354810263
       118          118.000000         3.769565197       294.236342341     -1336.758638151     -1332.917017346        14.339546018
       119          119.000000         3.886772278       303.385032166     -1336.925680064     -1332.965957151        13.628808026
       120          120.000000         3.883306898       303.114539214     -1336.914386949     -1332.957207058        14.437452259
       121          121.000000         3.657812563       285.513403589     -1336.626173480     -1332.893582026        15.059037138
       122          122.000000         3.846126369       300.212384082     -1336.887378644     -1332.965589927        14.402085260
       123          123.000000         3.905607324       304.855216323     -1336.939375445     -1332.957187232        14.335958758
       124          124.000000         3.870713075       302.131518578     -1336.892749144     -1332.944514830        14.386953105
       125          125.000000         3.913895846       305.502183321     -1336.998782557     -1333.006407579        14.333426097
       126          126.000000         3.743508883       292.202496497     -1336.756442942     -1332.933494953        14.379215594
       127          127.000000         3.892921768       303.865035351     -1336.947456736     -1332.974141202        14.342477696
       128          128.000000         3.988922586       311.358453867     -1337.076178009     -1333.005857885        14.362398971
       129          129.000000         3.790148367       295.842977673     -1336.785039087     -1332.912470946        14.333570249
       130          130.000000         3.882051968       303.016584679     -1336.926200681     -1332.960714105        14.351963226
       131          131.000000         3.886884140       303.393763652     -1336.920180430     -1332.948818325        14.386761510
       132          132.000000         3.930340595       306.785791001     -1336.948142107     -1332.932253423        14.386391001
       133          133.000000         4.022810848       314.003628517     -1337.100406235     -1332.990928335        14.362155178
       134          134.000000         3.771359908       294.376429888     -1336.753915847     -1332.894753854        14.354592333
       135          135.000000         3.845951974       300.198771582     -1336.861849345     -1332.926980969        14.312705154
       136          136.000000         3.990238009       311.461130250     -1337.057238311     -1332.976923706        13.613776163
       137          137.000000         3.878072466       302.705961574     -1336.875550962     -1332.906201919        12.917019770
       138          138.000000         3.934474305       307.108450975     -1336.983894598     -1332.956928766        13.637688424
       139          139.000000         3.837979151       299.576446698     -1336.863363209     -1332.931657211        14.415835715
       140          140.000000         3.880440199       302.890776812     -1336.858877102     -1332.883468568        12.918421374
       141          141.000000         4.058733156       316.807572154     -1337.105135572     -1332.950132960        13.664911549
       142          142.000000         3.851220106       300.609979734     -1336.814474484     -1332.865641603        13.628124474
       143          143.000000         3.844200258       300.062039994     -1336.816957222     -1332.873817504        12.936673367
       144          144.000000         3.936004256       307.227872473     -1336.916447682     -1332.880146717        12.952517815
       145          145.000000         3.923310753       306.237071256     -1336.848151990     -1332.823143804        13.674317094
       146          146.000000         4.052138968       316.292857681     -1337.030641269     -1332.875349100        13.608139441
       147          147.000000         3.885233446       303.264917424     -1336.810875122     -1332.820990445        13.658787538
       148          148.000000         3.836576716       299.466978520     -1336.747114906     -1332.804404097        13.669176184
       149          149.000000         4.032961876       314.795974865     -1337.008739471     -1332.868112909        13.681541333
       150          150.000000         3.930256591       306.779234037     -1336.847897484     -1332.808381683        13.675336562
       151          151.000000         3.923209216       306.229145651     -1336.861931144     -1332.827855351        14.368250990
       152          152.000000         3.879664695       302.830244267     -1336.817558652     -1332.825400679        14.362727568
       153          153.000000         3.825215355       298.580158658     -1336.737332207     -1332.797996086        15.099392422
       154          154.000000         4.041732768       315.480593712     -1337.023067350     -1332.865534256        15.041721503
       155          155.000000         3.922805233       306.197612494     -1336.886514175     -1332.846161712        15.047907529
       156          156.000000         3.790520934       295.872058682     -1336.731959971     -1332.822170301        15.042411182
       157          157.000000         3.874036049       302.390895865     -1336.874177234     -1332.879153206        15.102910314
       158          158.000000         3.816324933       297.886209836     -1336.777425180     -1332.838371282        15.095878961
       159          159.000000         3.903802566       304.714344498     -1336.908965822     -1332.880675137        13.612760075
       160          160.000000         3.841261080       299.832620237     -1336.865542922     -1332.898007715        12.952354372
       161          161.000000         3.696958652       288.568981993     -1336.667954527     -1332.842973630        13.630195954
       162          162.000000         3.891977497       303.791329529     -1336.926582039     -1332.904831160        13.648455421
       163          163.000000         3.865690394       301.739469318     -1336.879469484     -1332.882199863        13.675580273
       164          164.000000         3.806494628       297.118897729     -1336.812064266     -1332.872189774        13.612368121
       165          165.000000         3.858524105       301.180099031     -1336.924006424     -1332.930297450        13.644235681
       166          166.000000         3.771124166       294.358028824     -1336.784462563     -1332.876347269        13.656976462
       167          167.000000         3.925912955       306.440188149     -1336.995469767     -1332.930742169        13.660335726
       168          168.000000         3.933200046       307.008987651     -1337.007381213     -1332.933482229        13.625912997
       169          169.000000         3.774205960       294.598580668     -1336.790170405     -1332.873395125        13.604913948
       170          170.000000         3.902620235       304.622056727     -1336.984343723     -1332.937289674        13.662103525
       171          171.000000         3.901435019       304.529543813     -1336.958178404     -1332.910397857        13.621122252
       172          172.000000         3.923416250       306.245305912     -1336.997223808     -1332.925525758        14.340959597
       173          173.000000         3.943332763       307.799904797     -1337.045132749     -1332.951548767        14.329724009
       174          174.000000         3.780665803       295.102808729     -1336.819007696     -1332.886135883        14.372353225
       175          175.000000         3.941418392       307.650477075     -1337.025537364     -1332.929958083        14.347843097
       176          176.000000         4.033739716       314.856689757     -1337.129185377     -1332.939242873        15.061381832
       177          177.000000         3.897029880       304.185697278     -1336.946997369     -1332.891697485        15.757094466
       178          178.000000         3.910628996       305.247186836     -1336.989520594     -1332.918568979        14.325034977
       179          179.000000         3.835248519       299.363305063     -1336.903803687     -1332.906183163        15.026118980
       180          180.000000         3.914649899       305.561041564     -1336.990097588     -1332.911022137        15.076772689
       181          181.000000         4.009771148       312.985804550     -1337.111205486     -1332.934894009        14.317187038
       182          182.000000         3.823278598       298.428983569     -1336.847746007     -1332.855811291        13.623502005
       183          183.000000         3.890166841       303.649997415     -1336.917175660     -1332.856269015        13.649879211
       184          184.000000         3.979175096       310.597605942     -1337.014684041     -1332.862636481        13.620951219
       185          185.000000         3.966179389       309.583215929     -1336.965838640     -1332.824612644        13.617541558
       186          186.000000         4.010901982       313.074072673     -1337.046478816     -1332.858326105        13.639034157
       187          187.000000         3.839434179       299.690020013     -1336.821036084     -1332.802160372        12.918902773
       188          188.000000         3.875792728       302.528014846     -1336.872182429     -1332.814798633        12.877312016
       189          189.000000         4.030721307       314.621085527     -1337.048463097     -1332.833947586        13.632534869
       190          190.000000         3.894061034       303.953961649     -1336.858922181     -1332.778838589        13.618364183
       191          191.000000         3.892865594       303.860650697     -1336.868849017     -1332.787769557        13.581288155
       192          192.000000         3.894230528       303.967191631     -1336.870485370     -1332.785852897        13.636056175
       193          193.000000         3.906712374       304.941471851     -1336.882401281     -1332.783099106        13.636418308
       194          194.000000         4.046898698       315.883824346     -1337.080006107     -1332.838286841        13.623359663
       195          195.000000         3.881200685       302.950137144     -1336.864296927     -1332.786035858        13.624785359
       196          196.000000         3.818357389       298.044854779     -1336.798155731     -1332.780571217        13.582154495
       197          197.000000         3.945040147       307.933175999     -1336.981245791     -1332.834814312        12.880161532
       198          198.000000         3.914372520       305.539390500     -1336.930950830     -1332.813000883        12.894607016
       199          199.000000         3.962394261       309.287764792     -1337.008567480     -1332.840411433        12.939097871
       200          200.000000         3.866309592       301.787801316     -1336.906149544     -1332.831910882        13.589905453
       201          201.000000         3.795390419       296.252150077     -1336.808260485     -1332.802839823        13.686217807
       202          202.000000         3.982962692       310.893249727     -1337.043098230     -1332.848002019        13.590011846
       203          203.000000         3.933195754       307.008652658     -1336.963458207     -1332.815993835        13.627837577
       204          204.000000         3.854851059       300.893396568     -1336.879139493     -1332.807930771        12.912320178
       205          205.000000         3.860112984       301.304120247     -1336.904353490     -1332.825838870        12.946469000
       206          206.000000         3.824597780       298.531953353     -1336.837368423     -1332.792361295        12.879758418
       207          207.000000         3.949534600       308.283993998     -1337.001373492     -1332.829430105        13.630635305
       208          208.000000         3.889574744       303.603780788     -1336.930997436     -1332.817013612        13.585142396
       209          209.000000         3.776204176       294.754553011     -1336.785101547     -1332.782557333        12.882983696
       210          210.000000         3.906540900       304.928087287     -1336.964614501     -1332.829839668        12.947173866
       211          211.000000         3.897162390       304.196040393     -1336.923190168     -1332.795895482        12.912963333
       212          212.000000         3.909453320       305.155418527     -1336.943328783     -1332.801868090        13.595156990
       213          213.000000         3.915217299       305.605330418     -1336.969378835     -1332.820297611        13.638332967
       214          214.000000         3.805414185       297.034562945     -1336.818968377     -1332.777883004        13.596319453
       215          215.000000         3.932582971       306.960821415     -1337.000198238     -1332.830171325        13.613476719
       216          216.000000         3.933169800       307.006626821     -1337.002323868     -1332.829930510        13.668786666
       217          217.000000         3.825269930       298.584418587     -1336.850182722     -1332.783955918        13.636294567
       218          218.000000         3.877914957       302.693667085     -1336.941752598     -1332.821197013        13.616506646
       219          219.000000         3.836903683       299.492500229     -1336.879369478     -1332.798171701        12.903503420
       220          220.000000         3.891096657       303.722574930     -1336.957588117     -1332.820577634        12.907451298
       221          221.000000         3.922025586       306.136756536     -1337.023083143     -1332.853534918        13.642059451
       222          222.000000         3.769595402       294.238700003     -1336.836187455     -1332.817511636        12.891806239
       223          223.000000         3.819455295       298.130552684     -1336.917471220     -1332.847444937        13.624598863
       224          224.000000         3.855974780       300.981109508     -1336.956130137     -1332.848118374        13.580933424
       225          225.000000         3.828994155       298.875115863     -1336.919418039     -1332.836954155        13.649560492
       226          226.000000         3.857662100       301.112814582     -1336.977618063     -1332.865090354        13.570228365
       227          227.000000         3.753454479       292.978807717     -1336.837619234     -1332.827952056        13.607624070