#     Step Nr.          Time[fs]        Kin.[a.u.]          Temp[K]            Pot.[a.u.]        Cons Qty[a.u.]        UsedTime[s]
      5001         5001.000000         3.997194374       311.888471954     -1262.401219585     -1245.415526458        40.560284768
      5002         5002.000000         4.046716738       315.752545852     -1262.392311788     -1245.357304716        10.750567512
      5003         5003.000000         4.075692365       318.013422631     -1262.362504648     -1245.298690354        10.774828934
      5004         5004.000000         4.154354798       324.151204218     -1262.383927070     -1245.241570169        10.775032632
      5005         5005.000000         4.222868975       329.497149455     -1262.373251991     -1245.162435726        10.771440764
      5006         5006.000000         4.259397002       332.347316143     -1262.354671137     -1245.107299890        10.818910631
      5007         5007.000000         4.329176361       337.791979503     -1262.354145780     -1245.036874219        10.760531135
      5008         5008.000000         4.395419322       342.960708884     -1262.331010439     -1244.947263181        10.760358999
      5009         5009.000000         4.454389204       347.561942782     -1262.315005962     -1244.871926156        10.768088566
      5010         5010.000000         4.506641993       351.639063144     -1262.291068642     -1244.795226857        10.763780947
      5011         5011.000000         4.523517591       352.955812865     -1262.245863783     -1244.732478903        10.800389060
      5012         5012.000000         4.545831427       354.696891131     -1262.221820791     -1244.685291261        10.801712280
      5013         5013.000000         4.572394956       356.769559483     -1262.231952810     -1244.667857929        10.741443905
      5014         5014.000000         4.586905082       357.901738884     -1262.235644422     -1244.655860058        10.778923665
      5015         5015.000000         4.600215273       358.940291140     -1262.256735896     -1244.662281080        10.750589702
      5016         5016.000000         4.598152615       358.779348440     -1262.263879711     -1244.669945504        10.784052991
      5017         5017.000000         4.574604197       356.941939574     -1262.255925069     -1244.683822766        10.761412655
      5018         5018.000000         4.533105272       353.703909354     -1262.243663035     -1244.711183489        10.745956032
      5019         5019.000000         4.472707191       348.991237578     -1262.220124665     -1244.746028136        10.796670452
      5020         5020.000000         4.432324169       345.840277667     -1262.206448778     -1244.770597687        10.751917362
      5021         5021.000000         4.397523637       343.124901906     -1262.204492277     -1244.801188455        10.806089540
      5022         5022.000000         4.358996159       340.118724357     -1262.207468458     -1244.840333583        10.735914399
      5023         5023.000000         4.330936573       337.929323307     -1262.199792357     -1244.858262134        10.761837650
      5024         5024.000000         4.285836636       334.410317481     -1262.180924369     -1244.881954043        10.731405614
      5025         5025.000000         4.238704243       330.732725483     -1262.175816421     -1244.921371001        10.754697313
      5026         5026.000000         4.185878105       326.610868488     -1262.162233720     -1244.957954907        10.189090871
      5027         5027.000000         4.117603085       321.283583960     -1262.119415523     -1244.980721139        10.741168695
      5028         5028.000000         4.088813724       319.037240925     -1262.113134853     -1245.000515646        10.746297327
      5029         5029.000000         4.091880860       319.276559881     -1262.134527766     -1245.016087626        10.750604089
      5030         5030.000000         4.096087555       319.604795042     -1262.137591906     -1245.012141237        10.760942347
      5031         5031.000000         4.087399198       318.926869892     -1262.134278290     -1245.014665971        10.765514720
      5032         5032.000000         4.089167185       319.064820376     -1262.111746140     -1244.987472106        11.286689360
      5033         5033.000000         4.117558372       321.280095147     -1262.144086262     -1244.988469851        11.330085990
      5034         5034.000000         4.137544310       322.839534869     -1262.146215102     -1244.967592357        10.753484484
      5035         5035.000000         4.147645451       323.627695098     -1262.131454618     -1244.939643451        10.742448449
      5036         5036.000000         4.179297668       326.097417709     -1262.137152778     -1244.910527719        10.754325268
      5037         5037.000000         4.226288091       329.763932259     -1262.143227292     -1244.866354593        10.750120596
      5038         5038.000000         4.280547401       333.997615083     -1262.167423964     -1244.832919393        10.727834489
      5039         5039.000000         4.323474619       337.347090533     -1262.192617255     -1244.811686435        10.749033616
      5040         5040.000000         4.349612700       339.386562612     -1262.214840958     -1244.804147520        10.786351343
      5041         5041.000000         4.392900389       342.764164495     -1262.211623326     -1244.753884285        10.733447394
      5042         5042.000000         4.419085139       344.807277916     -1262.201292136     -1244.713467519        10.761928721
      5043         5043.000000         4.439077761       346.367239166     -1262.214336716     -1244.702479301        10.717397858
      5044         5044.000000         4.465512383       348.429849399     -1262.225368700     -1244.682891992        10.183610237
      5045         5045.000000         4.469563941       348.745979708     -1262.217118606     -1244.666263801        10.785807924
      5046         5046.000000         4.472881406       349.004831040     -1262.217158624     -1244.658528484        10.722848313
      5047         5047.000000         4.494294291       350.675610885     -1262.247234698     -1244.662593631        10.719131633
      5048         5048.000000         4.486299830       350.051828328     -1262.246269362     -1244.664888151        10.714999240
      5049         5049.000000         4.490952739       350.414880135     -1262.265316813     -1244.674422616        10.777127320
      5050         5050.000000         4.471637543       348.907776295     -1262.287233112     -1244.710677077        10.768535942
      5051         5051.000000         4.435771230       346.109241025     -1262.271518362     -1244.725764437        10.183508380
      5052         5052.000000         4.421414669       344.989043793     -1262.292882993     -1244.756341981        10.231179273
      5053         5053.000000         4.398272984       343.183371082     -1262.306167366     -1244.787544980        10.200618810
      5054         5054.000000         4.348755250       339.319658467     -1262.293233521     -1244.818856355        10.194972338
      5055         5055.000000         4.287097337       334.508685944     -1262.249121458     -1244.831118036        10.181004130
      5056         5056.000000         4.231859682       330.198665972     -1262.212422284     -1244.844381173        10.199952597
      5057         5057.000000         4.221665030       329.403209403     -1262.203849289     -1244.840718416        10.768454460
      5058         5058.000000         4.226164340       329.754276398     -1262.241873056     -1244.868917005        10.758877095
      5059         5059.000000         4.191551172       327.053519994     -1262.231176111     -1244.887483344        10.780521916
      5060         5060.000000         4.157233708       324.375836514     -1262.213649778     -1244.898933298        10.175262285
      5061         5061.000000         4.138071500       322.880669872     -1262.211092864     -1244.910204749        10.196959551
      5062         5062.000000         4.139556419       322.996533404     -1262.222540175     -1244.914822675        10.177414216
      5063         5063.000000         4.142006667       323.187718490     -1262.229162549     -1244.913626762        10.238191420
      5064         5064.000000         4.126446151       321.973580542     -1262.201124265     -1244.895769120        10.785541471
      5065         5065.000000         4.139983820       323.029882191     -1262.200961653     -1244.876672602        11.307910528
      5066         5066.000000         4.193344190       327.193423582     -1262.254486111     -1244.871376275        10.744514511
      5067         5067.000000         4.216033943       328.963833467     -1262.259851151     -1244.848511553        10.776826464
      5068         5068.000000         4.220821934       329.337425264     -1262.245094869     -1244.823374691        10.787422899
      5069         5069.000000         4.238530037       330.719132691     -1262.243723672     -1244.798652179        10.757374429
      5070         5070.000000         4.271502011       333.291831852     -1262.282799180     -1244.799039644        10.762930082
      5071         5071.000000         4.308595790       336.186142499     -1262.311007410     -1244.784345536        10.767785109
      5072         5072.000000         4.327973693       337.698139098     -1262.309314221     -1244.757375378        10.771089549
      5073         5073.000000         4.353354192       339.678499410     -1262.325911168     -1244.742605836        10.784360724
      5074         5074.000000         4.387753290       342.362552596     -1262.343611678     -1244.719818865        10.755216671
      5075         5075.000000         4.412236093       344.272868482     -1262.355078818     -1244.700606534        10.783125187
      5076         5076.000000         4.425973894       345.344785774     -1262.362456877     -1244.687951829        10.775760678
      5077         5077.000000         4.408285974       343.964653141     -1262.339618413     -1244.676437205        10.766293867
      5078         5078.000000         4.395181383       342.942143212     -1262.325586735     -1244.669101482        10.802638388
      5079         5079.000000         4.395091029       342.935093177     -1262.336750651     -1244.673894821        10.764602614
      5080         5080.000000         4.371635854       341.104959866     -1262.324831841     -1244.678928930        10.768842581
      5081         5081.000000         4.343391515       338.901143151     -1262.324754678     -1244.700580568        10.811245131
      5082         5082.000000         4.310590606       336.341791695     -1262.297417131     -1244.699530880        10.810060449
      5083         5083.000000         4.283221548       334.206270382     -1262.284523862     -1244.707504677        10.766926395
      5084         5084.000000         4.271595060       333.299092182     -1262.306561323     -1244.734669231        10.774475203
      5085         5085.000000         4.236525450       330.562721082     -1262.296968679     -1244.753660381        10.776580678
      5086         5086.000000         4.197648424       327.529269339     -1262.281865830     -1244.770991500        11.339166996
      5087         5087.000000         4.190102442       326.940480176     -1262.304265367     -1244.794524106        11.333445290
      5088         5088.000000         4.191067295       327.015764603     -1262.341944235     -1244.824827698        10.803820575
      5089         5089.000000         4.189579893       326.899707304     -1262.353797591     -1244.831756328        10.815454647
      5090         5090.000000         4.169917150       325.365485517     -1262.357346170     -1244.848570608        10.776181880
      5091         5091.000000         4.143726644       323.321922886     -1262.349865094     -1244.860921074        10.790161977
      5092         5092.000000         4.140553679       323.074346474     -1262.378080915     -1244.885981191        11.340985764
      5093         5093.000000         4.136181048       322.733163829     -1262.388233418     -1244.894192478        11.362399988
      5094         5094.000000         4.123619090       321.752993881     -1262.393449199     -1244.905679265        11.920326010
      5095         5095.000000         4.098869945       319.821896122     -1262.370361395     -1244.901090536        11.361316435
      5096         5096.000000         4.071761355       317.706698364     -1262.332117595     -1244.883761703        11.385826783
      5097         5097.000000         4.084758520       318.720826128     -1262.337414833     -1244.869900010        11.352764583
      5098         5098.000000         4.114084815       321.009064483     -1262.355576827     -1244.852560524        11.352217068
      5099         5099.000000         4.136224391       322.736545741     -1262.372868810     -1244.841511445        10.832382579
      5100         5100.000000         4.152091934       323.974640123     -1262.381221459     -1244.827773774        10.809387766
      5101         5101.000000         4.148224478       323.672874729     -1262.369267647     -1244.813459520        10.832393880
      5102         5102.000000         4.155532611       324.243105298     -1262.358136004     -1244.788792889        10.221872256
      5103         5103.000000         4.166861412       325.127055900     -1262.349159805     -1244.762249094        10.787260750
      5104         5104.000000         4.153540113       324.087636980     -1262.316898851     -1244.737072360        10.801347908
      5105         5105.000000         4.155735430       324.258930610     -1262.294380405     -1244.706131761        10.790578747
      5106         5106.000000         4.171501389       325.489098663     -1262.288732405     -1244.678478889        10.779573838
      5107         5107.000000         4.175221749       325.779386624     -1262.278408425     -1244.658179641        10.781342341
      5108         5108.000000         4.165973200       325.057751547     -1262.263988262     -1244.646755076        10.795541235
      5109         5109.000000         4.142497660       323.226029146     -1262.235339520     -1244.635353316        10.780813720
      5110         5110.000000         4.137016123       322.798322112     -1262.222469209     -1244.621761705        10.234847277
      5111         5111.000000         4.134479839       322.600423836     -1262.231049635     -1244.626687091        10.795114237
      5112         5112.000000         4.116759739       321.217780372     -1262.221881660     -1244.629069446        10.191921644
      5113         5113.000000         4.095970218       319.595639603     -1262.213628971     -1244.635474947        10.206450753
      5114         5114.000000         4.083184503       318.598010601     -1262.220934441     -1244.649473335        10.785508716
      5115         5115.000000         4.077842203       318.181167721     -1262.233308733     -1244.661126450        10.778444594
      5116         5116.000000         4.068947680       317.487156131     -1262.246596021     -1244.677272144        10.198695307
      5117         5117.000000         4.036277261       314.937986411     -1262.242333536     -1244.699693381        10.234419936
      5118         5118.000000         3.996921560       311.867185123     -1262.227454293     -1244.718260622        10.215504743
      5119         5119.000000         3.956979767       308.750653015     -1262.216823432     -1244.741752001        10.202243653
      5120         5120.000000         3.923727680       306.156097526     -1262.205949683     -1244.758402539        10.745076687
      5121         5121.000000         3.912577132       305.286055444     -1262.209433267     -1244.767384510        10.748392466
      5122         5122.000000         3.887860374       303.357484722     -1262.207549420     -1244.784636275        10.799670051
      5123         5123.000000         3.871260818       302.062273750     -1262.220942412     -1244.809125362        10.761025269
      5124         5124.000000         3.876386650       302.462226247     -1262.241631579     -1244.819243120        10.776725561
      5125         5125.000000         3.868270182       301.828923852     -1262.239668516     -1244.820001207        10.734384788
      5126         5126.000000         3.868970068       301.883533696     -1262.243869800     -1244.818160306        10.781278170
      5127         5127.000000         3.875811594       302.417356412     -1262.259938945     -1244.822086879        10.737744103
      5128         5128.000000         3.875796037       302.416142524     -1262.247610450     -1244.804512339        10.758023130
      5129         5129.000000         3.904963836       304.692013922     -1262.264811526     -1244.787306366        10.236940960
      5130         5130.000000         3.947325597       307.997368559     -1262.300571868     -1244.775453285        10.201339598
      5131         5131.000000         3.958979773       308.906707121     -1262.294254090     -1244.752220878        10.760299008
      5132         5132.000000         3.956135332       308.684764371     -1262.279279367     -1244.734847951        10.743500654
      5133         5133.000000         3.951360415       308.312192687     -1262.252221142     -1244.707350165        10.741222896
      5134         5134.000000         3.960140893       308.997305653     -1262.247609507     -1244.688763932        10.729355466
      5135         5135.000000         3.977718761       310.368851339     -1262.248685577     -1244.667071416        10.175202252
      5136         5136.000000         3.989088220       311.255974323     -1262.249776764     -1244.651600424        10.740037594
      5137         5137.000000         4.004772415       312.479762601     -1262.250765303     -1244.631708243        10.715335863
      5138         5138.000000         4.025693690       314.112183729     -1262.252750944     -1244.607562442        10.721776148
      5139         5139.000000         4.064581887       317.146507093     -1262.274169354     -1244.584848822        10.729560132
      5140         5140.000000         4.074155016       317.893468196     -1262.295692060     -1244.591521130        10.711810061
      5141         5141.000000         4.068482009       317.450821354     -1262.272717536     -1244.568935286        10.763257096
      5142         5142.000000         4.053213574       316.259473501     -1262.251455837     -1244.557667792        10.734162469
      5143         5143.000000         4.022932876       313.896766080     -1262.219944033     -1244.551191899        10.727748878
      5144         5144.000000         4.030618961       314.496487087     -1262.228452920     -1244.546789366        10.714286314
      5145         5145.000000         4.056774739       316.537339932     -1262.274786572     -1244.561723572        10.728812865
      5146         5146.000000         4.028942581       314.365684432     -1262.270594793     -1244.580121356        10.723294227
      5147         5147.000000         3.974726957       310.135410275     -1262.234173157     -1244.592730951        10.729478240
      5148         5148.000000         3.968468612       309.647091319     -1262.255628234     -1244.615313282        10.717250685
      5149         5149.000000         3.980013824       310.547927824     -1262.275792924     -1244.618814227        10.741239662
      5150         5150.000000         3.968383035       309.640414049     -1262.306586084     -1244.656134052        10.702569068
      5151         5151.000000         3.938930725       307.342343183     -1262.302348581     -1244.676287348        10.741276127
      5152         5152.000000         3.923763507       306.158892947     -1262.303827277     -1244.687921301        10.691320704
      5153         5153.000000         3.948177307       308.063824765     -1262.355004109     -1244.709689529        10.758469182
      5154         5154.000000         3.941524038       307.544691240     -1262.400275319     -1244.756627350        10.721175161
      5155         5155.000000         3.889822877       303.510612664     -1262.377151033     -1244.780274972        10.738517574
      5156         5156.000000         3.846615801       300.139300785     -1262.336900559     -1244.778390912        10.746830860
      5157         5157.000000         3.808473607       297.163185672     -1262.308616631     -1244.783496052        10.757225060
      5158         5158.000000         3.796761849       296.249354136     -1262.302368071     -1244.784279799        10.706189785
      5159         5159.000000         3.801029146       296.582317841     -1262.316176717     -1244.789190695        10.743444464
      5160         5160.000000         3.816966620       297.825868630     -1262.340262387     -1244.792739037        10.778255026
      5161         5161.000000         3.840843128       299.688877320     -1262.359476871     -1244.783492289        10.718915284
      5162         5162.000000         3.860777184       301.244268855     -1262.375975822     -1244.775480293        10.713878838
      5163         5163.000000         3.874502739       302.315230560     -1262.380161853     -1244.761373366        10.731149506
      5164         5164.000000         3.863204585       301.433671257     -1262.368279235     -1244.756246577        10.734012103
      5165         5165.000000         3.848978118       300.323624936     -1262.330843167     -1244.728537149        10.706935238
      5166         5166.000000         3.884296297       303.079391040     -1262.347248367     -1244.705140589        10.741936657
      5167         5167.000000         3.929680559       306.620581889     -1262.376683849     -1244.684683483        10.170746698
      5168         5168.000000         3.964554689       309.341700304     -1262.397599425     -1244.666183280        10.749331822
      5169         5169.000000         3.998257489       311.971423493     -1262.418053158     -1244.648358384        10.164081309
      5170         5170.000000         4.002082304       312.269861692     -1262.398707930     -1244.620589752        10.742100997
      5171         5171.000000         4.002993560       312.340964170     -1262.379219862     -1244.595586287        10.746317194
      5172         5172.000000         4.012580978       313.089040160     -1262.391269050     -1244.593434487        10.164731909
      5173         5173.000000         4.003058356       312.346019952     -1262.379958286     -1244.587028066        10.177914643
      5174         5174.000000         3.995460523       311.753185023     -1262.370050348     -1244.580106331        10.748068072
      5175         5175.000000         3.984934978       310.931909939     -1262.361823733     -1244.577802607        10.166517856
      5176         5176.000000         3.972387138       309.952841537     -1262.343633732     -1244.567571801        10.772331567
      5177         5177.000000         3.948598448       308.096685074     -1262.327235330     -1244.570397912        10.758202606
      5178         5178.000000         3.912190590       305.255894730     -1262.321491540     -1244.596540826        10.169022999
      5179         5179.000000         3.890404669       303.556008017     -1262.320434967     -1244.612797348        10.200988476
      5180         5180.000000         3.877428455       302.543514949     -1262.333777124     -1244.634681960        10.163076493
      5181         5181.000000         3.845353052       300.040772458     -1262.337282201     -1244.665876442        10.208791764
      5182         5182.000000         3.866565092       301.695881025     -1262.411841108     -1244.714869819        10.717254334
      5183         5183.000000         3.863531356       301.459168179     -1262.430464403     -1244.732186733        11.335720009
      5184         5184.000000         3.855354951       300.821189046     -1262.429768262     -1244.735356520        10.738239307
      5185         5185.000000         3.845269156       300.034226280     -1262.447644014     -1244.759042221        10.734872261
      5186         5186.000000         3.815500121       297.711442383     -1262.428005260     -1244.764945101        10.722533322
      5187         5187.000000         3.780606917       294.988835728     -1262.404804059     -1244.772476543        10.726425244
      5188         5188.000000         3.760781093       293.441889191     -1262.387962008     -1244.771366513        10.734817565
      5189         5189.000000         3.773801726       294.457848098     -1262.396752628     -1244.763086040        10.712823472
      5190         5190.000000         3.796246117       296.209113171     -1262.431398226     -1244.771254925        10.175822425
      5191         5191.000000         3.788769331       295.625723108     -1262.389203355     -1244.732529731        10.732660336
      5192         5192.000000         3.826157005       298.542965437     -1262.409128490     -1244.711076719        10.765959193
      5193         5193.000000         3.828428718       298.720219988     -1262.407495410     -1244.703187216        10.767481415
      5194         5194.000000         3.820370086       298.091430376     -1262.391847017     -1244.691640752        10.180896724
      5195         5195.000000         3.819505710       298.023985872     -1262.406749897     -1244.703481609        10.744887959
      5196         5196.000000         3.819460993       298.020496704     -1262.370179632     -1244.663055702        10.747990866
      5197         5197.000000         3.829434075       298.798664881     -1262.363167543     -1244.642190073        10.712560987
      5198         5198.000000         3.871438085       302.076105283     -1262.396618929     -1244.629752818        10.724150834
      5199         5199.000000         3.903858572       304.605773707     -1262.446021672     -1244.642827482        10.714073999
      5200         5200.000000         3.878173221       302.601626733     -1262.435696417     -1244.654285589        10.730897482
      5201         5201.000000         3.854492883       300.753924641     -1262.399870566     -1244.638275203        10.795146410
      5202         5202.000000         3.886365533       303.240847001     -1262.397630651     -1244.600309256        10.174560177
      5203         5203.000000         3.905816479       304.758542993     -1262.437199860     -1244.616559290        10.723968686
      5204         5204.000000         3.927638119       306.461216749     -1262.456883262     -1244.610538579        10.730684341
      5205         5205.000000         3.930637239       306.695228634     -1262.457778322     -1244.604541961        10.713125807
      5206         5206.000000         3.921601183       305.990173619     -1262.461241659     -1244.613153127        10.710189429
      5207         5207.000000         3.919437741       305.821367122     -1262.465762247     -1244.615957106        10.704161444
      5208         5208.000000         3.928261511       306.509858047     -1262.478051306     -1244.615541958        10.701083165
      5209         5209.000000         3.927437113       306.445532871     -1262.478478514     -1244.612910758        10.207530825
      5210         5210.000000         3.902378023       304.490251061     -1262.459896089     -1244.615519495        10.135568379
      5211         5211.000000         3.883505046       303.017652212     -1262.464135842     -1244.634792324        10.709812886
      5212         5212.000000         3.903864722       304.606253497     -1262.532102484     -1244.678567904        10.746163690
      5213         5213.000000         3.951299495       308.307439303     -1262.570057989     -1244.665229265        10.718377764
      5214         5214.000000         3.972107640       309.931033217     -1262.611156324     -1244.681623534        10.703976267
      5215         5215.000000         3.941433770       307.537647850     -1262.582360805     -1244.679604173        10.706619034
      5216         5216.000000         3.900191735       304.319661917     -1262.549229011     -1244.683850760        10.716584209
      5217         5217.000000         3.902329075       304.486431821     -1262.545911082     -1244.674556750        10.719445466
      5218         5218.000000         3.897047001       304.074288273     -1262.529712765     -1244.659809771        10.703556587
      5219         5219.000000         3.852837819       300.624785227     -1262.479386977     -1244.649894942        10.767215040
      5220         5220.000000         3.797782514       296.328993395     -1262.419424474     -1244.641254263        10.716476471
      5221         5221.000000         3.797453832       296.303347316     -1262.445299338     -1244.663776459        10.729028908
      5222         5222.000000         3.824846758       298.440731006     -1262.480779142     -1244.668194529        10.709989034
      5223         5223.000000         3.807820121       297.112196173     -1262.476733257     -1244.677523216        10.712758255
      5224         5224.000000         3.768713814       294.060854412     -1262.454430972     -1244.690726138        10.750788916
      5225         5225.000000         3.763394930       293.645838635     -1262.426392179     -1244.664456238        10.719003283
      5226         5226.000000         3.769367077       294.111826432     -1262.423462647     -1244.652035483        10.729102515
      5227         5227.000000         3.769107360       294.091561549     -1262.422076261     -1244.647417192        10.739882954
      5228         5228.000000         3.731959767       291.193051984     -1262.392558416     -1244.651603018        10.729178310