#     Step Nr.          Time[fs]        Kin.[a.u.]          Temp[K]            Pot.[a.u.]        Cons Qty[a.u.]        UsedTime[s]
         0            0.000000         3.844830508       300.000000000     -1262.482075183     -1258.636769652         0.000000000
         1            1.000000         3.404152751       265.615304253     -1261.894682849     -1258.489259093        38.752901562
         2            2.000000         3.307994444       258.112374797     -1261.817722990     -1258.507790150        10.749102581
         3            3.000000         3.476466622       271.257727558     -1262.021098817     -1258.542108857        10.156820308
         4            4.000000         3.438598026       268.302960449     -1261.858554084     -1258.416906737        10.215862989
         5            5.000000         3.792676689       295.930601955     -1262.313862986     -1258.517654662        10.230931643
         6            6.000000         3.599427503       280.851977335     -1261.995391052     -1258.391961214        10.192100197
         7            7.000000         3.594920914       280.500342452     -1261.870679103     -1258.271339287        10.219303247
         8            8.000000         4.123622126       321.753230759     -1262.485162323     -1258.356710958        10.180026744
         9            9.000000         3.968292881       309.633379640     -1262.149215811     -1258.175622875        10.179056410
        10           10.000000         3.972412363       309.954809811     -1262.144309938     -1258.166105429        10.199023955
        11           11.000000         3.962731578       309.199448705     -1262.087920276     -1258.118878535        10.246389639
        12           12.000000         3.905729624       304.751765923     -1261.868152788     -1257.955576094        10.239011567
        13           13.000000         4.468466737       348.660368294     -1262.540560855     -1258.064643766        10.209673680
        14           14.000000         4.346891232       339.174215066     -1262.309764867     -1257.954666071        10.216704119
        15           15.000000         4.141359159       323.137195556     -1261.963920805     -1257.813515896        10.218347598
        16           16.000000         4.418620086       344.770991301     -1262.345057148     -1257.916464495        10.212818917
        17           17.000000         4.279779324       333.937684499     -1262.124385896     -1257.833574560        10.181776226
        18           18.000000         4.410300524       344.121842110     -1262.351244873     -1257.928746162        10.190277345
        19           19.000000         4.254582928       331.971689142     -1262.217026065     -1257.948962737        10.168252535
        20           20.000000         3.915862669       305.542415487     -1261.776778404     -1257.846143243        10.202378698
        21           21.000000         4.382024811       341.915577433     -1262.416141721     -1258.017992811        10.181308128
        22           22.000000         4.352255499       339.592771871     -1262.376104858     -1258.006194963        10.172748774
        23           23.000000         4.136909128       322.789973603     -1262.168931251     -1258.012773380        10.168950927
        24           24.000000         4.135933000       322.713809465     -1262.315409727     -1258.158604829        10.202409141
        25           25.000000         3.817245934       297.847662650     -1261.914307778     -1258.074577848        10.149195772
        26           26.000000         4.082006168       318.506068764     -1262.336741326     -1258.230640655        10.154825479
        27           27.000000         4.053206347       316.258909570     -1262.379799864     -1258.300799058        10.173444532
        28           28.000000         3.614873559       282.057184446     -1261.857937939     -1258.215637390        10.206413262
        29           29.000000         3.894221545       303.853826852     -1262.299429107     -1258.376211126        10.204246841
        30           30.000000         3.911904776       305.233593585     -1262.283076348     -1258.340542132        10.159426220
        31           31.000000         3.930900549       306.715773847     -1262.287982789     -1258.324800949        10.214694366
        32           32.000000         3.945161772       307.828532108     -1262.387742381     -1258.408625971        10.177674308
        33           33.000000         3.477268491       271.320294875     -1261.734837885     -1258.222032907        10.184524700
        34           34.000000         3.776297380       294.652576131     -1262.124657320     -1258.311333322        10.207206905
        35           35.000000         4.016840081       313.421364509     -1262.388421181     -1258.332972466        10.247745965
        36           36.000000         3.801761664       296.639473874     -1262.083649843     -1258.241673628        10.199337922
        37           37.000000         3.977373480       310.341910147     -1262.331760968     -1258.312578821        10.187003396
        38           38.000000         3.854565945       300.759625407     -1262.075317829     -1258.177324348        10.191415705
        39           39.000000         4.035244007       314.857364868     -1262.217472004     -1258.137165618        10.207510766
        40           40.000000         4.272776464       333.391273399     -1262.505340886     -1258.185744242        10.188779052
        41           41.000000         3.819418952       298.017216432     -1261.842996428     -1257.974981442        10.747005761
        42           42.000000         3.971257277       309.864682047     -1262.027082283     -1258.005516256        10.760370005
        43           43.000000         4.199394054       327.665475382     -1262.256670998     -1258.005151361        10.721133932
        44           44.000000         4.193134674       327.177075666     -1262.148286192     -1257.901098734        10.756827399
        45           45.000000         4.420949541       344.952751360     -1262.449708069     -1257.972653396        10.731181428
        46           46.000000         4.094187160       319.456513193     -1261.976542582     -1257.824122767        10.738954585
        47           47.000000         4.157198665       324.373102248     -1262.043220566     -1257.825675899        10.177907124
        48           48.000000         4.499048556       351.046571215     -1262.480962331     -1257.919286794        10.159722794
        49           49.000000         4.175025989       325.764112116     -1262.023514501     -1257.783465736        10.710841343
        50           50.000000         4.198694309       327.610876433     -1262.113991683     -1257.847897718        10.194181453
        51           51.000000         4.158116887       324.444748195     -1262.086035397     -1257.858091746        10.163024791
        52           52.000000         4.142148346       323.198773264     -1262.037993462     -1257.823561168        10.201269884
        53           53.000000         4.480339258       349.586743672     -1262.565196075     -1258.009967661        10.172511134
        54           54.000000         4.068819588       317.477161554     -1262.074462783     -1257.928079242        10.218307547
        55           55.000000         3.902457932       304.496486160     -1261.930756757     -1257.948215087        10.159800943
        56           56.000000         4.124436753       321.816793533     -1262.280055043     -1258.073004871        10.170434684
        57           57.000000         3.944335597       307.764068316     -1262.040230850     -1258.010722963        10.162349425
        58           58.000000         4.061103782       316.875121543     -1262.272620262     -1258.123810745        10.200687185
        59           59.000000         3.855461146       300.829475148     -1262.063524015     -1258.117850869        10.160576820
        60           60.000000         3.693356022       288.180923525     -1261.866101481     -1258.080175634        10.176752515
        61           61.000000         4.107400906       320.487540164     -1262.449133983     -1258.246781075        10.194699951
        62           62.000000         3.877641660       302.560150737     -1262.151297550     -1258.176267049        10.197450541
        63           63.000000         3.712177210       289.649481449     -1261.987992852     -1258.176141632        10.159768835
        64           64.000000         3.784332409       295.279524098     -1262.127293297     -1258.241089841        10.155525837
        65           65.000000         3.673943222       286.666203941     -1261.921853107     -1258.143908562        10.194140516
        66           66.000000         4.050673781       316.061301443     -1262.410077612     -1258.253260289        10.168982271
        67           67.000000         3.948008949       308.050688378     -1262.297597438     -1258.241239234        10.162579998
        68           68.000000         3.686796392       287.669096287     -1261.934339902     -1258.137114277        10.137873400
        69           69.000000         4.038844855       315.138327658     -1262.399229202     -1258.247910582        10.147446144
        70           70.000000         3.995800849       311.779739578     -1262.250864458     -1258.140477829        10.185700186
        71           71.000000         4.041875180       315.374774365     -1262.300935733     -1258.142373907        10.149115797
        72           72.000000         4.035335634       314.864514182     -1262.287623318     -1258.133496655        10.165823806
        73           73.000000         3.789916842       295.715259810     -1261.902190814     -1257.991457430        10.177858647
        74           74.000000         4.230121520       330.063042607     -1262.436365809     -1258.083393338        10.184808608
        75           75.000000         4.291557152       334.856671305     -1262.457200448     -1258.040606666        10.184045609
        76           76.000000         4.049690518       315.984580511     -1262.116742278     -1257.939839075        10.192446921
        77           77.000000         4.206914155       328.252245136     -1262.340972837     -1258.004689795        10.135813653
        78           78.000000         4.088508470       319.013422939     -1262.112333997     -1257.892273716        10.185656656
        79           79.000000         4.288909553       334.650087448     -1262.354505108     -1257.931833038        10.154029354
        80           80.000000         4.328337912       337.726558016     -1262.410533046     -1257.946122426        10.186575554
        81           81.000000         3.903413317       304.571031808     -1261.855169186     -1257.813443327        10.201173499
        82           82.000000         4.165740347       325.039582744     -1262.216868250     -1257.910647353        10.153506331
        83           83.000000         4.264598573       332.753178381     -1262.312995576     -1257.905646089        10.163179610
        84           84.000000         4.156588442       324.325488465     -1262.166423213     -1257.864791819        10.144398380
        85           85.000000         4.216919704       329.032946591     -1262.346476047     -1257.982224699        10.132525802
        86           86.000000         3.889480664       303.483910866     -1261.907291002     -1257.868256564        10.164454035
        87           87.000000         4.085078284       318.745776298     -1262.194007267     -1257.957227883        10.135371808
        88           88.000000         4.285695705       334.399321048     -1262.491760846     -1258.052121240        10.128973383
        89           89.000000         3.911453156       305.198355089     -1262.022934032     -1257.955325345        10.129199084
        90           90.000000         3.957457444       308.787924611     -1262.194116287     -1258.078417029        10.115792770
        91           91.000000         3.902641279       304.510792113     -1262.131260625     -1258.068333161        10.138184194
        92           92.000000         3.930445236       306.680247183     -1262.152350966     -1258.059627435        10.110713989
        93           93.000000         4.102431359       320.099782050     -1262.441223819     -1258.174509088        10.680420678
        94           94.000000         3.682112901       287.303658196     -1261.917792701     -1258.069472412        10.701349005
        95           95.000000         3.730658951       291.091553394     -1262.027630644     -1258.129005929        10.134909336
        96           96.000000         3.973696830       310.055032727     -1262.349528627     -1258.206109400        10.147983346
        97           97.000000         3.831229939       298.938790443     -1262.127137509     -1258.124440310        10.695814345
        98           98.000000         3.930935059       306.718466542     -1262.286267081     -1258.182176372        10.662054058
        99           99.000000         3.716452084       289.983036395     -1262.000120759     -1258.108887540        10.718406446
       100          100.000000         3.743411257       292.086575631     -1262.018677824     -1258.098964046        10.169353485
       101          101.000000         4.124942278       321.856238049     -1262.505514767     -1258.202722097        10.708991140
       102          102.000000         3.864749222       301.554194418     -1262.118783655     -1258.074614698        10.161986534
       103          103.000000         3.848078197       300.253406909     -1262.114610658     -1258.085629690        10.144157458
       104          104.000000         3.972167052       309.935668947     -1262.248998569     -1258.094461916        10.104752880
       105          105.000000         3.951044001       308.287503908     -1262.118859043     -1257.983976906        10.132236406
       106          106.000000         4.244032358       331.148461457     -1262.493258624     -1258.063878691        10.128931243
       107          107.000000         4.013950882       313.195929435     -1262.171568505     -1257.970718258        10.158534888
       108          108.000000         3.899794264       304.288648537     -1261.983224009     -1257.895044155        10.107361168
       109          109.000000         4.260687838       332.448036010     -1262.434510360     -1257.983919148        10.144839808
       110          110.000000         4.168391389       325.246435150     -1262.233958243     -1257.874057304        10.140280444
       111          111.000000         4.208715634       328.392808861     -1262.321886998     -1257.920031451        10.154192839
       112          112.000000         4.137562058       322.840919701     -1262.262371009     -1257.930009068        10.122991312
       113          113.000000         3.990007859       311.327730902     -1262.047218802     -1257.860774000        10.171970330
       114          114.000000         4.364776886       340.569776242     -1262.532637427     -1257.969734631        10.164461736
       115          115.000000         4.218928494       329.189686116     -1262.335461829     -1257.916612496        10.151247334
       116          116.000000         3.982960975       310.777884710     -1262.062329457     -1257.877695065        10.124408670
       117          117.000000         4.114854045       321.069085067     -1262.291782717     -1257.973525325        10.175929811
       118          118.000000         4.005428528       312.530957009     -1262.122968420     -1257.912390146        10.143559445
       119          119.000000         4.169443605       325.328536299     -1262.371188644     -1257.994834424        10.181578737
       120          120.000000         4.068207746       317.429421431     -1262.324079653     -1258.047163374        10.142269269
       121          121.000000         3.754351068       292.940174629     -1261.946449429     -1257.981678844        10.168251470
       122          122.000000         4.053975705       316.318940156     -1262.382172563     -1258.116108316        10.152457219
       123          123.000000         4.054167761       316.333925728     -1262.364265991     -1258.096276078        10.159890331
       124          124.000000         3.951247677       308.303396070     -1262.261822509     -1258.095035185        10.118862275
       125          125.000000         3.960060936       308.991066916     -1262.338715545     -1258.161426957        10.167894442
       126          126.000000         3.728876667       290.952487418     -1262.026335975     -1258.078606174        10.131153435
       127          127.000000         3.991207217       311.421313005     -1262.403438585     -1258.191788879        10.138498615
       128          128.000000         4.036902148       314.986744335     -1262.480482027     -1258.221490973        10.123879254
       129          129.000000         3.708028631       289.325780911     -1262.080302755     -1258.148597267        10.747308090
       130          130.000000         3.846140493       300.102213971     -1262.322092898     -1258.250770763        10.733294442
       131          131.000000         3.852962832       300.634539582     -1262.273462894     -1258.193815099        10.747728113
       132          132.000000         3.962889270       309.211752865     -1262.370234137     -1258.179156451        10.695677754
       133          133.000000         4.053665197       316.294712221     -1262.514073882     -1258.230680828        10.175754618
       134          134.000000         3.721596321       290.384424974     -1262.071572916     -1258.118749518        10.713305410
       135          135.000000         3.918445107       305.743914964     -1262.348204267     -1258.197095009        10.733644333
       136          136.000000         4.094329215       319.467597279     -1262.524860954     -1258.196369938        10.756471079
       137          137.000000         3.958239361       308.848935120     -1262.305891077     -1258.111965175        10.721447002
       138          138.000000         4.048904189       315.923225746     -1262.433763444     -1258.147650872        10.740432676
       139          139.000000         3.898458695       304.184438289     -1262.204679942     -1258.067489876        10.719667543
       140          140.000000         4.059806871       316.773927688     -1262.346043829     -1258.045984327        10.725650925
       141          141.000000         4.321466726       337.190421010     -1262.663420125     -1258.100072564        10.724718049
       142          142.000000         4.035145094       314.849647011     -1262.239639999     -1257.960926865        10.715343922
       143          143.000000         4.096031463       319.600418368     -1262.326978632     -1257.985711274        10.765164725
       144          144.000000         4.193481853       327.204164978     -1262.434866896     -1257.994417733        10.720546629
       145          145.000000         4.177043928       325.921565491     -1262.372556319     -1257.946748661        10.736172829
       146          146.000000         4.328077597       337.706246454     -1262.617239855     -1258.038520114        10.735403620
       147          147.000000         4.045295365       315.641640587     -1262.261732677     -1257.963878619        10.166796286
       148          148.000000         4.045593327       315.664889646     -1262.252450024     -1257.952421106        10.163275562
       149          149.000000         4.293710458       335.024686964     -1262.584426981     -1258.034321651        10.773424368
       150          150.000000         4.108404122       320.565817884     -1262.322300135     -1257.955467914        10.201317597
       151          151.000000         4.115829960       321.145232614     -1262.396907561     -1258.020623885        10.222553197
       152          152.000000         4.022414741       313.856337662     -1262.309032550     -1258.024131443        10.193574999
       153          153.000000         3.974390734       310.109175846     -1262.240883867     -1258.001997422        10.243251868
       154          154.000000         4.236198893       330.537240920     -1262.640858817     -1258.138091844        10.827543423
       155          155.000000         3.982951251       310.777125964     -1262.315503837     -1258.063867769        10.267572619
       156          156.000000         3.854902825       300.785911113     -1262.178295438     -1258.052683938        10.227290004
       157          157.000000         3.995199009       311.732779941     -1262.390345566     -1258.122428235        10.270089176
       158          158.000000         3.920734546       305.922552707     -1262.276379886     -1258.080901316        10.233883973
       159          159.000000         4.062945159       317.018798382     -1262.487907723     -1258.148180529        10.262955129
       160          160.000000         3.925782997       306.316467423     -1262.336028640     -1258.131412760        10.289602619
       161          161.000000         3.796017374       296.191265039     -1262.165664504     -1258.088840977        10.287387047
       162          162.000000         4.094641074       319.491930698     -1262.575516811     -1258.198078181        10.822194282
       163          163.000000         4.005695849       312.551815252     -1262.426427695     -1258.135873982        10.840275835
       164          164.000000         3.931702767       306.778368360     -1262.337374694     -1258.118787605        10.865881015
       165          165.000000         3.936117156       307.122809221     -1262.350687642     -1258.125683470        10.845377907
       166          166.000000         3.827536059       298.650568685     -1262.159009096     -1258.040619507        10.881430041
       167          167.000000         4.107053871       320.460462048     -1262.521561869     -1258.121663859        10.332517613
       168          168.000000         4.066940221       317.330520477     -1262.415438354     -1258.053582403        10.848717652
       169          169.000000         3.865835384       301.638944193     -1262.148478536     -1257.985701023        10.876580797
       170          170.000000         4.047371657       315.803647140     -1262.388809199     -1258.042485512        10.893699877
       171          171.000000         4.014126885       313.209662435     -1262.290291681     -1257.975154443        10.297354165
       172          172.000000         4.083113884       318.592500385     -1262.354772466     -1257.968568696        10.305889104
       173          173.000000         4.070016178       317.570527706     -1262.389000917     -1258.013779345        10.921436220
       174          174.000000         3.837194596       299.404193824     -1262.061754272     -1257.917288034        10.926512349
       175          175.000000         4.072380727       317.755025973     -1262.364896970     -1257.983193429        10.904356755
       176          176.000000         4.113042404       320.927728394     -1262.408559020     -1257.984054773        10.347614609
       177          177.000000         3.958305202       308.854072489     -1262.206931508     -1257.935031103        10.384771042
       178          178.000000         4.012865105       313.111209691     -1262.332763183     -1258.004193768        10.344389006
       179          179.000000         3.887104214       303.298483950     -1262.141690210     -1257.936788137        10.950928301
       180          180.000000         4.038671103       315.124770325     -1262.333115364     -1257.974556860        10.322465703
       181          181.000000         4.126436429       321.972821960     -1262.476815761     -1258.028327240        10.312363211
       182          182.000000         3.864163533       301.508494945     -1262.153629367     -1257.965273195        10.370051153
       183          183.000000         3.978583448       310.436320076     -1262.335348467     -1258.030484686        10.321716841
       184          184.000000         4.031047043       314.529888952     -1262.393483969     -1258.034025453        10.935828280
       185          185.000000         4.025475923       314.095192038     -1262.360244836     -1258.004203876        10.941177428
       186          186.000000         4.095986000       319.596871013     -1262.490964521     -1258.062230293        10.331446320
       187          187.000000         3.859042027       301.108879962     -1262.187829834     -1257.993884793        10.356753029
       188          188.000000         3.968088711       309.617448848     -1262.333886975     -1258.028790689        10.328977644
       189          189.000000         4.137978889       322.873443697     -1262.577104861     -1258.099939219        10.899729621
       190          190.000000         3.975643898       310.206956285     -1262.352169196     -1258.035132776        10.938276831
       191          191.000000         4.012104622       313.051871620     -1262.453981415     -1258.098308479        10.957068499
       192          192.000000         3.921886136       306.012407601     -1262.317964903     -1258.050346153        10.907704022
       193          193.000000         3.950926221       308.278313896     -1262.332035527     -1258.033238171        10.915512696
       194          194.000000         4.142036907       323.190078087     -1262.598440729     -1258.106336304        10.374428231
       195          195.000000         3.921965726       306.018617764     -1262.325465144     -1258.051220731        10.369797505
       196          196.000000         3.923477980       306.136614238     -1262.363215148     -1258.085313923        10.402734835
       197          197.000000         4.048959919       315.927574201     -1262.497879844     -1258.092326392        10.395984676
       198          198.000000         3.998086976       311.958118919     -1262.384582938     -1258.027702574        10.378834791
       199          199.000000         4.104939114       320.295454232     -1262.514930951     -1258.048975961        10.434943840
       200          200.000000         3.948137814       308.060743317     -1262.313902452     -1258.002521740        10.986499950
       201          201.000000         3.909287616       305.029384857     -1262.247729446     -1257.973030539        10.474011589
       202          202.000000         4.138831935       322.940004165     -1262.575116539     -1258.068661052        10.444985963
       203          203.000000         4.022358478       313.851947625     -1262.417990486     -1258.025741926        10.996310361
       204          204.000000         4.032299949       314.627649268     -1262.446638557     -1258.042200827        10.989831757
       205          205.000000         4.065305254       317.202949136     -1262.479095491     -1258.039382851        10.397331808
       206          206.000000         4.011757552       313.024790839     -1262.356479766     -1257.968037326        10.960064970
       207          207.000000         4.192979221       327.164946162     -1262.600297360     -1258.028308791        11.013138730
       208          208.000000         4.054391610       316.351391885     -1262.416168514     -1257.980396844        10.982365943
       209          209.000000         3.948005280       308.050402099     -1262.260555585     -1257.928856609        10.381078463
       210          210.000000         4.108260181       320.554586622     -1262.485127964     -1257.990847846        11.008482691
       211          211.000000         4.048445073       315.887402407     -1262.374756452     -1257.937918477        10.958355021
       212          212.000000         4.113969605       321.000075027     -1262.457608683     -1257.952857593        11.005654782
       213          213.000000         4.066704980       317.312165363     -1262.409017893     -1257.949116460        10.988548849
       214          214.000000         3.921552616       305.986384107     -1262.211634957     -1257.894516946        10.992745902
       215          215.000000         4.099785965       319.893370291     -1262.465023485     -1257.967302038        10.998838454
       216          216.000000         4.035355816       314.866088954     -1262.378126033     -1257.942417337        11.037064400
       217          217.000000         3.939041118       307.350956818     -1262.275523530     -1257.933754651        11.120548442
       218          218.000000         3.994276957       311.660835094     -1262.390063618     -1257.990706355        11.111031748
       219          219.000000         3.904857212       304.683694403     -1262.259432946     -1257.947159312        11.022883832
       220          220.000000         4.032286983       314.626637554     -1262.444670595     -1258.002635353        11.016979456
       221          221.000000         3.999396694       312.060312048     -1262.416257901     -1258.004752189        11.013737343
       222          222.000000         3.808568612       297.170598550     -1262.180261458     -1257.957294336        11.016896259
       223          223.000000         3.944118430       307.747123444     -1262.390249314     -1258.029490968        10.455950476
       224          224.000000         3.921551586       305.986303770     -1262.350517476     -1258.010068218        10.449867286
       225          225.000000         3.902161741       304.473375261     -1262.341130214     -1258.017841711        11.007525582
       226          226.000000         3.954680565       308.571253554     -1262.424526255     -1258.046499046        11.060469486
       227          227.000000         3.822569139       298.263015578     -1262.233735458     -1257.985636197        11.020454258