#     Step Nr.          Time[fs]        Kin.[a.u.]          Temp[K]            Pot.[a.u.]        Cons Qty[a.u.]        UsedTime[s]
         0            0.000000         3.847680642       300.000000000     -1470.580581145     -1466.732425481         0.000000000
         1            1.000000         3.827736858       298.445002093     -1470.556652947     -1466.727588737        55.209219896
         2            2.000000         3.839459396       299.358997286     -1470.578622446     -1466.736987414        12.604486368
         3            3.000000         3.821174933       297.933375094     -1470.550786920     -1466.726591118        12.648626549
         4            4.000000         3.836986569       299.166193280     -1470.587376054     -1466.746528030        12.618940986
         5            5.000000         3.887400011       303.096881423     -1470.630791822     -1466.738683713        12.666060399
         6            6.000000         3.854659190       300.544110710     -1470.578808402     -1466.718586583        12.639341662
         7            7.000000         3.854278900       300.514459873     -1470.590352285     -1466.729657604        11.902903276
         8            8.000000         3.881121480       302.607350357     -1470.626431399     -1466.738035978        12.193224435
         9            9.000000         3.859519231       300.923043525     -1470.604446978     -1466.736789498        12.129934023
        10           10.000000         3.851734727       300.316093107     -1470.599063676     -1466.738326889        11.888925606
        11           11.000000         3.810774719       297.122480284     -1470.526518975     -1466.705883797        11.923468789
        12           12.000000         3.807232389       296.846288164     -1470.522199311     -1466.704259373        11.901178893
        13           13.000000         3.867638218       301.556073205     -1470.592265858     -1466.713073096        11.893512151
        14           14.000000         3.860084399       300.967109111     -1470.568639137     -1466.696144999        11.904218965
        15           15.000000         3.860211133       300.976990460     -1470.575096011     -1466.701618022        11.897551259
        16           16.000000         3.870497379       301.778999261     -1470.576217214     -1466.691591868        11.892820564
        17           17.000000         3.853376194       300.444076796     -1470.555206511     -1466.686838048        11.938694404
        18           18.000000         3.855940791       300.644035971     -1470.546021175     -1466.674223745        11.907091462
        19           19.000000         3.806115374       296.759195560     -1470.490718602     -1466.667887111        11.883157841
        20           20.000000         3.786327277       295.216336447     -1470.464117285     -1466.660229624        11.882438426
        21           21.000000         3.854516639       300.532996189     -1470.547319857     -1466.674403145        11.905921060
        22           22.000000         3.879990309       302.519154005     -1470.552762911     -1466.653522171        11.870936107
        23           23.000000         3.885859239       302.976748853     -1470.568922596     -1466.662953036        11.894832497
        24           24.000000         3.862436196       301.150476476     -1470.527546387     -1466.644134913        11.890383882
        25           25.000000         3.826492515       298.347981888     -1470.476935504     -1466.628606679        11.898500606
        26           26.000000         3.858470168       300.841249111     -1470.516110864     -1466.634946274        11.907229817
        27           27.000000         3.843095703       299.642516698     -1470.493407215     -1466.626756089        11.887918085
        28           28.000000         3.810258093       297.082199430     -1470.477839411     -1466.643171566        11.872406385
        29           29.000000         3.839194211       299.338321065     -1470.516612490     -1466.652160488        11.916031817
        30           30.000000         3.860488884       300.998646447     -1470.537999302     -1466.651400844        11.912607505
        31           31.000000         3.887761555       303.125070623     -1470.561825831     -1466.647094752        11.903156499
        32           32.000000         3.873226838       301.991812623     -1470.554852194     -1466.653787382        11.894669814
        33           33.000000         3.831882458       298.768230639     -1470.561880828     -1466.701293696        11.910674187
        34           34.000000         3.858789509       300.866147770     -1470.598085333     -1466.709727465        12.566128162
        35           35.000000         3.874431167       302.085712956     -1470.613422842     -1466.708552844        12.599506353
        36           36.000000         3.862787322       301.177853457     -1470.594401822     -1466.700300002        11.889968717
        37           37.000000         3.864996987       301.350138968     -1470.594409793     -1466.697220272        11.879729328
        38           38.000000         3.864286935       301.294776834     -1470.586365630     -1466.689004502        11.862275540
        39           39.000000         3.901853313       304.223791612     -1470.641207130     -1466.705389390        11.879226974
        40           40.000000         3.905469499       304.505742186     -1470.652149867     -1466.711810822        11.883197687
        41           41.000000         3.844661272       299.764582587     -1470.575139398     -1466.694700055        11.858835973
        42           42.000000         3.845119770       299.800331201     -1470.585124563     -1466.703324313        11.898553655
        43           43.000000         3.868240291       301.603016284     -1470.616753403     -1466.710927387        11.873567126
        44           44.000000         3.883763309       302.813331248     -1470.644526055     -1466.722263288        12.611897652
        45           45.000000         3.889626021       303.270441332     -1470.656621170     -1466.727572405        12.569484812
        46           46.000000         3.836732335       299.146370921     -1470.593398677     -1466.716318980        11.875682928
        47           47.000000         3.828335905       298.491709244     -1470.592141643     -1466.722542199        12.120422821
        48           48.000000         3.847369706       299.975756616     -1470.619623221     -1466.730075757        11.867291275
        49           49.000000         3.816365693       297.558403238     -1470.571443381     -1466.711988507        11.870645991
        50           50.000000         3.791092457       295.587873017     -1470.549067354     -1466.713987113        13.102197934
        51           51.000000         3.780484480       294.760779142     -1470.548072380     -1466.722716618        12.570317724
        52           52.000000         3.815931514       297.524550686     -1470.567275602     -1466.705598653        11.845601900
        53           53.000000         3.850495965       300.219508061     -1470.606835726     -1466.709718563        12.603925793
        54           54.000000         3.803313817       296.540760847     -1470.556494528     -1466.705686766        11.843788506
        55           55.000000         3.764469841       293.512132949     -1470.551539563     -1466.738721464        11.834857187
        56           56.000000         3.766192836       293.646473232     -1470.566228240     -1466.750852450        12.545729094
        57           57.000000         3.783594904       295.003295920     -1470.579853754     -1466.746254805        12.563375972
        58           58.000000         3.819216471       297.780675670     -1470.621265157     -1466.751230107        11.838387861
        59           59.000000         3.817825873       297.672252050     -1470.623830958     -1466.754374967        12.761901626
        60           60.000000         3.831502249       298.738586111     -1470.659269831     -1466.775330277        12.555480575
        61           61.000000         3.884431759       302.865449640     -1470.719786351     -1466.782105418        12.558656156
        62           62.000000         3.879223131       302.459337824     -1470.702492490     -1466.769197433        12.545008431
        63           63.000000         3.851958780       300.333562365     -1470.677917856     -1466.771062131        12.579897326
        64           64.000000         3.837490877       299.205513689     -1470.671464618     -1466.778255125        13.277368767
        65           65.000000         3.846423200       299.901958436     -1470.639156652     -1466.736195271        12.584051277
        66           66.000000         3.902680820       304.288311544     -1470.703430059     -1466.743383649        13.290358591
        67           67.000000         3.908288316       304.725522689     -1470.712484747     -1466.745987008        12.601102404
        68           68.000000         3.881051409       302.601886957     -1470.664230334     -1466.724116627        12.622989802
        69           69.000000         3.900304652       304.103044001     -1470.725607833     -1466.765380992        13.287733993
        70           70.000000         3.894344830       303.638362311     -1470.720357707     -1466.765219363        13.281740795
        71           71.000000         3.866477880       301.465602739     -1470.693883120     -1466.765735374        13.269978914
        72           72.000000         3.822948123       298.071628986     -1470.658299350     -1466.772809754        12.582806220
        73           73.000000         3.788829102       295.411401396     -1470.615204171     -1466.762975498        12.640200051
        74           74.000000         3.835184531       299.025690090     -1470.676057079     -1466.776623245        12.569022775
        75           75.000000         3.861496947       301.077244171     -1470.685421554     -1466.758820522        12.594734430
        76           76.000000         3.841816684       299.542792773     -1470.666703038     -1466.758925197        12.575401764
        77           77.000000         3.824035633       298.156421108     -1470.652568820     -1466.761720305        12.573542209
        78           78.000000         3.805936398       296.745240964     -1470.598478844     -1466.724886581        12.592320354
        79           79.000000         3.827243038       298.406499452     -1470.643439841     -1466.747704971        12.584766896
        80           80.000000         3.831075632       298.705323162     -1470.645595142     -1466.745193515        12.594826324
        81           81.000000         3.793775932       295.797101035     -1470.609663042     -1466.745734952        12.630833821
        82           82.000000         3.806038204       296.753178721     -1470.626065015     -1466.749060687        12.623875896
        83           83.000000         3.840145592       299.412499304     -1470.676034554     -1466.764111685        12.705670959
        84           84.000000         3.845441276       299.825398754     -1470.672449205     -1466.754417575        12.626469251
        85           85.000000         3.836916119       299.160700382     -1470.661547946     -1466.751229559        13.344743269
        86           86.000000         3.803273007       296.537578949     -1470.618287733     -1466.740807777        13.504937739
        87           87.000000         3.804795170       296.656260565     -1470.625348886     -1466.745553402        12.621786446
        88           88.000000         3.843234033       299.653302117     -1470.664901836     -1466.745877575        12.610519420
        89           89.000000         3.852337208       300.363068049     -1470.669286736     -1466.740366083        12.604506178
        90           90.000000         3.861940933       301.111861289     -1470.676645716     -1466.737325232        12.645105185
        91           91.000000         3.860961872       301.035524897     -1470.685991644     -1466.746850598        13.284869859
        92           92.000000         3.860154499       300.972574743     -1470.674451493     -1466.735315673        12.609158023
        93           93.000000         3.869981695       301.738791883     -1470.691810005     -1466.742041080        12.616763729
        94           94.000000         3.831934598       298.772295894     -1470.621789265     -1466.709261147        12.572026812
        95           95.000000         3.825028456       298.233830593     -1470.628631808     -1466.722210535        12.776959555
        96           96.000000         3.853915050       300.486090838     -1470.668667239     -1466.732561330        12.605398670
        97           97.000000         3.860109637       300.969076927     -1470.676496416     -1466.733393458        12.604039137
        98           98.000000         3.891475948       303.414678308     -1470.708127718     -1466.732848834        12.633210271
        99           99.000000         3.892561464       303.499315004     -1470.711361361     -1466.734175753        12.582754155
       100          100.000000         3.874069116       302.057484173     -1470.681022784     -1466.721501469        12.596898807
       101          101.000000         3.888151358       303.155463215     -1470.704773306     -1466.730335877        12.629606682
       102          102.000000         3.865915429       301.421748989     -1470.676147688     -1466.723105818        11.896290188
       103          103.000000         3.858034502       300.807280581     -1470.660260899     -1466.714258678        11.900337215
       104          104.000000         3.892195947       303.470816022     -1470.719354073     -1466.738342962        12.603342847
       105          105.000000         3.908426378       304.736287214     -1470.717625315     -1466.719522090        12.608572306
       106          106.000000         3.921580338       305.761889032     -1470.745036449     -1466.732901885        12.611942396
       107          107.000000         3.905084066       304.475690352     -1470.736890418     -1466.740360690        12.577782316
       108          108.000000         3.882052855       302.679968765     -1470.709887934     -1466.735490863        12.605922786
       109          109.000000         3.893167452       303.546563341     -1470.725987452     -1466.739570625        11.868708015
       110          110.000000         3.877048481       302.289782485     -1470.706990398     -1466.735779318        11.884581274
       111          111.000000         3.857569563       300.771029793     -1470.680065516     -1466.727418344        11.923592587
       112          112.000000         3.862924828       301.188574699     -1470.690776155     -1466.731857631        12.581217939
       113          113.000000         3.860134081       300.970982826     -1470.690704065     -1466.733656914        12.603318770
       114          114.000000         3.878453642       302.399341534     -1470.712712737     -1466.736421650        12.593539443
       115          115.000000         3.860197419       300.975921158     -1470.691975173     -1466.733010559        12.652905799
       116          116.000000         3.801368826       296.389111752     -1470.622738354     -1466.721680265        11.902633820
       117          117.000000         3.797891642       296.117998999     -1470.600153119     -1466.701665357        11.896750026
       118          118.000000         3.801273606       296.381687535     -1470.615651399     -1466.712884435        12.672073910
       119          119.000000         3.817092798       297.615094862     -1470.619965681     -1466.700488857        13.154908762
       120          120.000000         3.842044138       299.560527121     -1470.623044691     -1466.677726915        12.570612205
       121          121.000000         3.834540501       298.975475712     -1470.615479289     -1466.676775412        12.588552142
       122          122.000000         3.864639500       301.322266031     -1470.653279339     -1466.683585773        12.576735640
       123          123.000000         3.874014046       302.053190488     -1470.670588533     -1466.690622258        12.606096010
       124          124.000000         3.845130142       299.801139929     -1470.569908982     -1466.617926386        11.887292311
       125          125.000000         3.844732838       299.770162484     -1470.587022588     -1466.634540285        12.600780766
       126          126.000000         3.848011577       300.025802646     -1470.578573740     -1466.621915858        12.615807757
       127          127.000000         3.893959852       303.608345949     -1470.628466874     -1466.624957012        12.299200490
       128          128.000000         3.945017477       307.589260422     -1470.716720364     -1466.661228303        11.892533520
       129          129.000000         3.926603756       306.153560106     -1470.693687876     -1466.655663055        12.674931870
       130          130.000000         3.922716697       305.850489809     -1470.675787541     -1466.640689561        11.897666370
       131          131.000000         3.925050532       306.032456708     -1470.666025416     -1466.627618192        11.921459221
       132          132.000000         3.898438718       303.957558918     -1470.678307892     -1466.665525218        11.894680476
       133          133.000000         3.886258659       303.007891283     -1470.675142626     -1466.673547144        13.340496353
       134          134.000000         3.848396133       300.055786130     -1470.618740434     -1466.654014061        11.938995810
       135          135.000000         3.836161363       299.101852800     -1470.617400765     -1466.663921602        11.956672790
       136          136.000000         3.875261651       302.150465042     -1470.637330130     -1466.643760937        11.924221452
       137          137.000000         3.873958621       302.048869008     -1470.634926929     -1466.641661925        12.616505718
       138          138.000000         3.862845467       301.182386996     -1470.623288851     -1466.640135051        11.926900188
       139          139.000000         3.843706416       299.690133367     -1470.616997601     -1466.651982350        12.622889565
       140          140.000000         3.828091004       298.472614514     -1470.592408400     -1466.642013682        11.992115658
       141          141.000000         3.865647007       301.400820347     -1470.636028501     -1466.647083095        12.653196608
       142          142.000000         3.873309110       301.998227288     -1470.652437751     -1466.654827340        12.582515320
       143          143.000000         3.875750884       302.188610027     -1470.611243070     -1466.610182187        11.927298646
       144          144.000000         3.907579791       304.670279687     -1470.632134877     -1466.598226089        11.900751805
       145          145.000000         3.907513614       304.665119923     -1470.627828098     -1466.592951631        11.911030197
       146          146.000000         3.911842390       305.002630460     -1470.668626563     -1466.628375335        11.935354605
       147          147.000000         3.887910268       303.136665636     -1470.606409664     -1466.589035689        11.898823126
       148          148.000000         3.852221256       300.354027357     -1470.582063423     -1466.599324690        12.599464246
       149          149.000000         3.885543888       302.952161263     -1470.642402310     -1466.625285746        12.616144662
       150          150.000000         3.898394691       303.954126149     -1470.633171011     -1466.602135987        11.940714643
       151          151.000000         3.893280638       303.555388334     -1470.648319544     -1466.621321105        12.655333803
       152          152.000000         3.890285605       303.321868460     -1470.667308079     -1466.642220193        11.942397744
       153          153.000000         3.853488657       300.452845380     -1470.636177609     -1466.646801243        12.663065181
       154          154.000000         3.842466716       299.593475135     -1470.596807924     -1466.617374267        12.642439612
       155          155.000000         3.817203720       297.623743382     -1470.585874487     -1466.630632455        12.690107402
       156          156.000000         3.760965843       293.238929577     -1470.480103508     -1466.580047570        11.964417665
       157          157.000000         3.774534685       294.296879300     -1470.520595436     -1466.605941600        12.652256526
       158          158.000000         3.808026477       296.908202493     -1470.562473828     -1466.613308208        12.662722668
       159          159.000000         3.830366599       298.650040523     -1470.576793727     -1466.604270249        11.955977016
       160          160.000000         3.849860105       300.169930687     -1470.614818589     -1466.621783510        11.921298048
       161          161.000000         3.807877505       296.896587243     -1470.561515774     -1466.609451024        11.944102844
       162          162.000000         3.796065367       295.975606105     -1470.593918515     -1466.652669666        12.660188037
       163          163.000000         3.806506940       296.789725625     -1470.628559338     -1466.675884365        12.701168331
       164          164.000000         3.781747803       294.859279234     -1470.613421464     -1466.684533797        12.690313583
       165          165.000000         3.802615830       296.486339432     -1470.619505471     -1466.668792262        12.651846169
       166          166.000000         3.817443480       297.642437232     -1470.606790613     -1466.640298775        12.689080103
       167          167.000000         3.846271342       299.890118222     -1470.605597921     -1466.609329488        11.952110930
       168          168.000000         3.894016490       303.612761977     -1470.660020612     -1466.615050705        12.636603832
       169          169.000000         3.860784213       301.021672975     -1470.611508375     -1466.598807491        11.953609653
       170          170.000000         3.842193330       299.572159478     -1470.588922741     -1466.593855138        11.970682607
       171          171.000000         3.850909431       300.251745607     -1470.603542372     -1466.598804973        11.983734902
       172          172.000000         3.841103710       299.487202888     -1470.590558194     -1466.594675093        11.965287297
       173          173.000000         3.858894298       300.874318055     -1470.616548374     -1466.601925283        11.950527815
       174          174.000000         3.839847337       299.389244638     -1470.595145001     -1466.598620735        12.578312659
       175          175.000000         3.827417895       298.420132882     -1470.552469057     -1466.567433856        11.944540855
       176          176.000000         3.865541409       301.392586990     -1470.589144711     -1466.565047804        12.250990773
       177          177.000000         3.856365305       300.677134907     -1470.592138594     -1466.576276279        11.967076764
       178          178.000000         3.849834552       300.167938271     -1470.562565832     -1466.552295538        11.939010799
       179          179.000000         3.850707300       300.235985621     -1470.572197941     -1466.560118972        12.652740013
       180          180.000000         3.840133171       299.411530855     -1470.551953307     -1466.549516186        11.959445171
       181          181.000000         3.874890138       302.121498515     -1470.595428324     -1466.557302258        11.931295276
       182          182.000000         3.864240861       301.291184525     -1470.612112911     -1466.583699831        11.931733132
       183          183.000000         3.829416333       298.575949167     -1470.592867096     -1466.598348032        12.646379041
       184          184.000000         3.838933589       299.318000558     -1470.614434668     -1466.609476475        11.910208096
       185          185.000000         3.824370358       298.182519347     -1470.585860527     -1466.594549725        12.644455089
       186          186.000000         3.826408034       298.341394981     -1470.567867441     -1466.573611980        11.925411621
       187          187.000000         3.819545234       297.806308969     -1470.565179139     -1466.576887691        12.623365982
       188          188.000000         3.776993092       294.488558933     -1470.522281047     -1466.575658377        11.915520012
       189          189.000000         3.807034781       296.830880882     -1470.553955003     -1466.576424122        11.933952333
       190          190.000000         3.817339571       297.634335553     -1470.560707441     -1466.572012412        11.936374731
       191          191.000000         3.797490012       296.086684276     -1470.555254400     -1466.585560650        12.660965884
       192          192.000000         3.804318275       296.619077473     -1470.579833346     -1466.602477044        12.669433689
       193          193.000000         3.763560274       293.441214907     -1470.512127767     -1466.574711848        12.121198653
       194          194.000000         3.766171538       293.644812714     -1470.525155910     -1466.584333899        12.637359731
       195          195.000000         3.776318730       294.435979565     -1470.522971930     -1466.571225581        12.656834369
       196          196.000000         3.749017628       292.307338657     -1470.484952627     -1466.559750045        12.645247990
       197          197.000000         3.788295699       295.369812465     -1470.539421513     -1466.574203225        12.681473533
       198          198.000000         3.801593727       296.406647039     -1470.572626435     -1466.593382829        12.724812697
       199          199.000000         3.792714342       295.714329829     -1470.561877343     -1466.590798180        12.667546133
       200          200.000000         3.804647369       296.644736620     -1470.571975570     -1466.588261622        12.666724196
       201          201.000000         3.773498037       294.216052834     -1470.542113840     -1466.588861854        13.309053362
       202          202.000000         3.787247061       295.288051185     -1470.563552934     -1466.595882690        12.670090098
       203          203.000000         3.811897824       297.210047712     -1470.596476420     -1466.603497490        13.639538255
       204          204.000000         3.783367149       294.985538142     -1470.546207193     -1466.581112718        12.631361853
       205          205.000000         3.797715002       296.104226555     -1470.569286694     -1466.589213970        12.687834096
       206          206.000000         3.802190458       296.453173631     -1470.571223314     -1466.586056232        12.653934845
       207          207.000000         3.807189036       296.842907998     -1470.531492808     -1466.540719389        12.678868138
       208          208.000000         3.836084640       299.095870711     -1470.603524950     -1466.583255832        12.656932603
       209          209.000000         3.796628967       296.019549413     -1470.588936400     -1466.607530566        12.689349901
       210          210.000000         3.797068269       296.053801379     -1470.594985190     -1466.612562667        12.673699492
       211          211.000000         3.823468152       298.112175153     -1470.603774551     -1466.594384949        12.680119400
       212          212.000000         3.800498040       296.321217365     -1470.594452882     -1466.607474768        12.679924363
       213          213.000000         3.812603938       297.265102749     -1470.616353157     -1466.616722588        12.662195897
       214          214.000000         3.791051897       295.584710635     -1470.625707424     -1466.647093527        12.684483659
       215          215.000000         3.775308711       294.357229373     -1470.612726463     -1466.649336713        12.675867546
       216          216.000000         3.816673392       297.582394166     -1470.668690159     -1466.663430490        12.648471469
       217          217.000000         3.804234501       296.612545695     -1470.582946352     -1466.589628492        11.931492317
       218          218.000000         3.819962506       297.838843267     -1470.602945824     -1466.593413181        12.661341349
       219          219.000000         3.843505025       299.674431129     -1470.653803735     -1466.620247196        11.942424988
       220          220.000000         3.824586763       298.199392232     -1470.632329298     -1466.617213811        11.961842599
       221          221.000000         3.862579100       301.161618599     -1470.682859350     -1466.629278902        12.635266973
       222          222.000000         3.862028784       301.118710943     -1470.705501148     -1466.651996653        12.643035824
       223          223.000000         3.855853595       300.637237359     -1470.695497030     -1466.647693647        12.635958209
       224          224.000000         3.887689929       303.119486079     -1470.752898213     -1466.672782881        12.620910514
       225          225.000000         3.850334304       300.206903475     -1470.704636765     -1466.661398155        12.612308192
       226          226.000000         3.847787696       300.008346923     -1470.704696375     -1466.663529227        12.657659183
       227          227.000000         3.867768884       301.566261099     -1470.729793685     -1466.668171255        12.619987875