    2698
 i =      550, time =      550.000, E =     -1250.9130274663
  C        12.5172362200       11.6318609575       13.9104509052
  O        13.2909963237       12.5227862009       13.7681712517
  O        11.6569351232       10.8236899286       13.9956980494
  N        10.6022044116       12.5925033878       11.3697087169
  H        10.3071669685       11.6698559760       10.8747215392
  H         9.6283265443       12.7107388387       11.6824116368
  H        10.8888868272       13.2880803092       10.6585163971
  O        13.7113510956       15.8040143793       12.7126072906
  H        12.7663004001       16.0630110271       12.8514009219
  H        13.6619061613       14.9431054051       13.0985650656
  O        13.0244502498       14.8399918818       10.0941058052
  H        12.1313740849       15.3080378972       10.2101310925
  H        13.4426055505       15.0042863621       10.9942544128
  O         1.4061254441        9.9334837701       -7.7403581510
  H         2.1515497361        9.8590182033       -8.3932835586
  H         1.4755231622        9.0592828695       -7.2865085193
  O        31.6773893038       27.3407030238       -6.3873984445
  H        31.0328182577       26.6579611538       -6.0608763835
  H        31.5074034852       28.0656667506       -5.7578695735
  O        25.2192049079       10.5120958045        9.5508197517
  H        25.8289098387        9.9342956933        9.1036491550
  H        25.8299981880       11.1191172451        9.9823344558
  O        13.4664491549       -0.6421822280        7.4080450213
  H        12.5879625693       -0.4708618569        7.7959351033
  H        13.5743657646        0.0801771289        6.8096750867
  O        -5.3495641069       22.7247306572       -3.2434467817
  H        -6.1450921401       22.1570261072       -3.3293389965
  H        -5.7891012787       23.5577158427       -2.9913659899
  O        -6.2766580815        9.0582804927       -0.0554571952
  H        -7.0342440220        8.5277570926        0.3472799144
  H        -6.7668903487        9.4357102130       -0.8136047269
  O        23.8315569855        6.8976193491        4.2879710480
  H        23.8931123823        6.4003355246        5.1474219188
  H        22.9487488979        6.5982329693        4.0037339160
  O        22.0739573824       25.9314276996       -3.3431955814
  H        22.7517173739       25.2887330738       -3.5587087369
  H        22.6274716963       26.6737446794       -2.9441641573
  O         0.7215368941       10.7162097496        5.6262248164
  H         0.0658852905       10.1274687142        5.2714226755
  H         0.2085060369       11.3569809522        6.0922246404
  O         3.2874626902       20.2208505549      -10.9931559292
  H         3.6560126135       21.1185051427      -10.8153288195
  H         2.3605328549       20.3783729816      -10.6730160927
  O        23.6532073231        7.3642421150        0.4631405322
  H        22.7349265327        7.2908966807        0.0880865433
  H        23.9208230423        6.4189732209        0.3571199209
  O         1.1932755535        6.7549851790      -12.2153048797
  H         1.4955504494        6.1515425985      -12.9491553703
  H         0.2727505360        6.8864861738      -12.5120247741
  O        20.3454216552        1.3512949330       -5.1659054269
  H        19.8305329789        0.5385787332       -4.9335860923
  H        19.7839248079        1.6732861219       -5.9142937911
  O        11.0013240975       -0.2691128651       -8.0829169472
  H        10.7680107911       -0.3194684681       -7.1692578904
  H        11.9458415902       -0.4194542671       -8.0652143114
  O         0.7468444126       20.7331648849       -2.9596954559
  H        -0.0073314113       20.8806474357       -2.4075941224
  H         0.3628789453       20.2462672335       -3.7234429525
  O        25.4658334368       -1.1248307690       -6.5972874620
  H        25.2062038951       -2.0747425336       -6.6791806711
  H        24.5706822635       -0.6899677698       -6.7001341508
  O        16.4166140212       24.6181631795       -5.9021893415
  H        15.9924979586       25.0824002116       -6.6906340760
  H        16.8483345799       23.8457541350       -6.3911486356
  O        18.6946857748       13.5867101348      -12.7273968103
  H        19.1561766565       14.0107228343      -13.5198249972
  H        18.0607739798       14.2919263303      -12.5110126159
  O        14.0034346302       14.9205677002      -11.3526746819
  H        13.5727929082       15.3943516165      -12.1344545564
  H        13.5420268909       14.0944242991      -11.3869998811
  O        18.2375420219       25.4830787965      -12.7487137588
  H        18.7466591883       26.3311455367      -12.6266640665
  H        17.4230572885       25.6912152061      -12.3356390379
  O        19.2525637136        6.2256080495       -4.7756564161
  H        19.2328182361        6.3493311159       -3.7752853159
  H        18.6924666520        5.4276636543       -4.8197679967
  O        22.4858764073        3.0444156597       -4.6517647718
  H        22.2235839839        3.6842009933       -5.3628379348
  H        21.6638969324        2.4745267887       -4.7309455097
  O        -1.7500434417        8.6981513779       -7.1122301036
  H        -2.5976453503        8.1913582670       -7.0819449098
  H        -1.3387937607        8.2916815389       -7.9101465758
  O        20.2344754472       11.1236426986       -0.4959628720
  H        19.4170314070       11.4420468953       -0.1075068680
  H        20.6879258592       10.6663892954        0.2416522634
  O        17.4594135753        8.9086298147        2.5259846660
  H        18.2862654005        9.2432911382        2.9596178990
  H        17.1217270669        8.2571865120        3.2030515217
  O        -1.9400481648       23.8386183365        2.9479992445
  H        -1.7221885687       22.8939098391        3.1003468880
  H        -2.9019203461       23.7000474792        2.8233315771
  O        26.2873911402        4.2818945416      -12.8622590141
  H        26.9133393119        3.5467173566      -12.9264142024
  H        25.4931453403        3.8904664616      -13.2745147700
  O        11.9135733780        1.6266842460        3.0713588235
  H        11.8290541576        0.6955867513        3.3467428700
  H        11.2428328466        2.0823287752        3.6192590238
  O        24.5667091365        0.8561149336        3.1106633664
  H        24.9909123998        1.5796265603        2.6973843783
  H        24.2111677396        0.3831415612        2.3256000128
  O         6.3277528719        9.3384546499      -12.2206113912
  H         5.3743997179        9.2732534945      -12.4422294696
  H         6.2977181117        9.2214116508      -11.2500163745
  O        29.5160741787      -10.5213433830        8.2607858499
  H        29.2162841320       -9.7207003218        7.8445651652
  H        28.8999751074       21.4005762262        9.0736252206
  O         8.2129727490        0.8073834634        3.8653088315
  H         7.9838975813       -0.0925367735        4.2633963120
  H         8.7702930652        1.1409780481        4.5925525427
  O         5.5452179920        2.3934822873       -3.4224701635
  H         6.1583607012        3.0071253339       -3.8704081582
  H         5.8272102157        2.5522510674       -2.4849652063
  O        10.8187178351       -4.3889096474       -8.1296893240
  H        11.4554728841       -3.9608113744       -7.5232383569
  H        10.2147412521       -3.6333795310       -8.3857750074
  O        28.1338624846       20.5069162738       10.7311503340
  H        27.2200557849       20.0873519395       10.6819857187
  H        28.1703579019       20.7419003429       11.6665757155
  O        22.5154618133       12.1761387277       -4.7709297623
  H        21.5967480074       12.2029469911       -4.4213487754
  H        22.7852012057       13.0914309879       -4.5320971676
  O        19.9508209934        4.1300542305       -1.8749027588
  H        19.5048851975        5.0182825431       -1.7014062676
  H        19.1392946434        3.6115991218       -2.1619714756
  O        -0.7439770251        7.1591261144       -9.1655453630
  H        -0.7868932063        6.3737322125       -8.5537249316
  H         0.2298189778        7.1782023277       -9.3972541178
  O        11.6592302820        5.0557589286        2.7619094914
  H        11.1018355265        4.5338050198        3.3293458585
  H        11.9207595479        4.4772763577        2.0285196075
  O        10.5508129882        1.8143735995       -0.0668674649
  H        10.2235440491        1.2196062262        0.6502793068
  H         9.7501667068        1.9331555701       -0.5593637317
  O         6.4989022886        3.5563948819      -11.5382988946
  H         6.9226953380        2.7033687717      -11.2492083752
  H         7.2578305906        4.1898036560      -11.4366245802
  O        28.4139849560        7.5506368214        6.1497015855
  H        28.6344750630        7.5178595131        5.1504561905
  H        27.8851029131        8.3824088569        6.1278868613
  O        16.1805075821       14.7492630429        1.8669215007
  H        15.6427846460       14.9109528030        2.6042653908
  H        15.5831826598       14.6735710583        1.1142657190
  O         1.0121538597       12.8106795929       -6.9514147262
  H         1.0219289450       11.8390547233       -7.1606682400
  H         0.7390463426       13.1229877839       -7.8694383853
  O         7.8474951717       15.8654626872      -10.1454770173
  H         7.3523757685       15.3491612351       -9.5082000719
  H         7.5253110398       16.7734362015       -9.9494764929
  O        28.2713522518       -1.4866867389        6.6916602257
  H        28.5460596741       -2.3937469176        6.4234509082
  H        27.6915515147       -1.2202744175        5.9799033004
  O        20.5312897770        8.3927624003       10.0294068197
  H        19.6666647448        7.9300631002        9.9952360246
  H        20.9590552000        7.8367289946       10.7310773092
  O         7.8522375595       -6.8919249159       -9.2930845508
  H         7.0203971362       -6.3178095930       -9.3203122274
  H         8.1451909846       -6.5970531493       -8.3898733497
  O        17.0175378139       10.6825918998       -1.8654596827
  H        17.8964732105       10.4590006136       -1.5016053035
  H        16.6440425015       11.2274516840       -1.1496164106
  O         7.2555971991        6.1429502476       13.0100779435
  H         8.1503842543        5.7251555085       12.9750221976
  H         7.3149333722        7.1538039473       12.9321565290
  O         7.1361086967       18.8950043527        3.8987758279
  H         6.8364978805       19.3864394467        4.7037483727
  H         6.4582299938       19.3094693776        3.2696053542
  O         8.1604517521       28.0417481739       -1.1193804088
  H         8.3536846181       27.1174427728       -0.8506368393
  H         8.0871876155       27.9594099944       -2.0993854928
  O        10.2720319037        1.8989961747       -9.4989536466
  H         9.3503017577        2.1000546488       -9.1337919864
  H        10.4638215775        1.1218759763       -9.0692512516
  O         8.8759980444       18.1008998832        6.5045291276
  H         8.4974171173       18.9781158410        6.8478494967
  H         9.6800404123       18.1872027786        5.9482834611
  O         2.8254320560        0.6738309001        8.8379486213
  H         3.7721184342        0.7497309779        8.5574045029
  H         2.7600732319        1.5084280065        9.3678311586
  O        19.5086893883       -0.6063732498      -10.4821859693
  H        18.9423184445       -0.6180761600      -11.2618925374
  H        20.4124725989       -0.5326732461      -10.9115256612
  O        28.2997188912       21.5466700723      -12.0560941087
  H        28.8415166174       22.1714373015      -12.5702138388
  H        28.4307272514       21.9424288606      -11.1495135468
  O         8.6018090282       -5.6943113452       10.1845035644
  H         7.8818556741       26.8550530390        9.9134448221
  H         8.2698053198       -6.5036703301       10.5203910459
  O         3.8405609953       17.4864239775        0.9091740078
  H         4.1871172117       16.7357507752        0.4367317376
  H         3.1248056909       17.1216668993        1.4233637528
  O        26.6130614560       17.4605297425        6.7664548557
  H        25.8487702379       17.5953665128        7.3149257059
  H        26.9907605936       16.6900046950        7.2391516130
  O        12.1029558960       10.8598999388       -0.7543686148
  H        12.6049980910       10.1518458513       -0.3586846759
  H        12.7558853023       11.1131966408       -1.5029316053
  O        28.9543291117        4.3061719066        8.8418427912
  H        27.9695363811        4.2444217291        8.8564347478
  H        29.1620283351        3.3558804872        8.6610262792
  O         1.1160827822       -2.0453165690        1.6129324464
  H         2.1119568540       -2.1160317889        1.5438137802
  H         1.0129568519       -1.2778713092        2.2357991246
  O        19.9641693517       23.9376809820        1.9146328723
  H        19.4652551844       23.1772077260        1.5374981654
  H        19.8800496968       24.6400847114        1.1896502183
  O        22.7577477695       29.5091488922       -2.5902841644
  H        22.9627901773       30.4506724417       -2.4733057961
  H        21.7798809012       29.5136306101       -2.4504631725
  O        23.0429604702       14.5226226963       -3.4929423861
  H        22.4279207276       14.2849806707       -2.8067055781
  H        23.8172344027       14.7800928820       -2.9636722740
  O        12.4500088175        0.5004858415       10.6661043582
  H        13.3070115378        0.6800283401       11.0134400367
  H        12.2545310970        1.1947866141       10.0408597751
  O        11.8364269329       18.7151201326       11.8744939307
  H        12.4931485439       19.2039969860       11.2935040900
  H        11.0019532950       19.2015649779       11.7268503737
  O         2.8090734599       -3.0327639692       -2.5376190079
  H         2.9464937005       -3.3890312300       -1.6366455615
  H         2.9043474062       -3.9032396137       -3.0879957546
  O        13.2397826853        7.9405129084      -12.4938870098
  H        14.0329792208        8.2095703981      -11.9529527062
  H        12.7428051919        7.4317183905      -11.7743106568
  O         4.5990263273       -1.1787150770       -3.2282476665
  H         3.8766493465       -1.8277113814       -2.9964669152
  H         4.0702275859       -0.3474478696       -3.1016721487
  O        25.7346056978        8.2689499688       -8.1526789399
  H        25.1485627644        7.4784489697       -7.8948168324
  H        25.0195339768        8.9101682270       -8.3040773833
  O         9.7481476806        5.2959419080        6.4552957231
  H         8.9311155117        5.4393446368        6.9414673706
  H        10.0392534007        6.2069240585        6.1386581838
  O        11.8879505503       14.7930438744       -1.3519147094
  H        12.5470274031       14.1938877837       -0.9149764839
  H        11.0872730844       14.3720500231       -0.9656205269
  O         6.0807079163       14.0784773792       -8.5731629312
  H         5.1352671302       13.8967533132       -8.3515161759
  H         6.2259626087       13.3598686534       -9.2356962635
  O        18.5764775219       -0.5276724280       -4.6027443122
  H        18.0101101314       -0.8616515740       -5.3534160285
  H        17.9123912860       -0.2535447737       -3.9384019403
  O        23.0872557869       -1.7010602735      -14.0377943142
  H        22.1494788455       -1.3871743902      -14.1923948680
  H        22.8359087821       -2.5180498667      -13.5517977363
  O         8.8131351740       25.6337320017       -0.3633619714
  H         8.5668199190       25.0807160123        0.4038787039
  H         9.1289615313       25.0102892810       -0.9819494386
  O        22.9380212087        1.8716844838      -11.3959513984
  H        23.5178435853        2.2221324452      -12.1095455416
  H        22.3799456139        2.6557605662      -11.2740553661
  O        11.9870366421       19.1626651900       -7.4342089157
  H        11.5188980416       18.5261294303       -8.0027964079
  H        11.5716405944       18.9248681642       -6.5789411401
  O         9.7120359727       12.8196808305        5.0909723553
  H         9.9121355914       13.8060295651        5.1666401718
  H        10.0950926583       12.6171132124        5.9671940443
  O        21.2233505181       15.8235920405       10.2879923903
  H        21.1808708593       14.9789375073       10.7422275718
  H        20.9940189232       16.5242994811       10.9902550889
  O        10.4146306397        3.2397688083        4.6770000093
  H         9.6051382451        3.6768290413        5.0314662985
  H        10.8643433490        3.0534275650        5.5401441799
  O        22.0021371528       17.1679114115        6.6124899895
  H        21.5506690272       17.9452259701        6.9443952757
  H        21.8106108448       16.5579327607        7.3449313210
  O        25.5046612272       25.7427520332       11.1919917044
  H        25.3704510619       26.6860916999       11.0434222652
  H        26.1131096648       25.5451228585       10.4092623459
  O         5.8071130376        3.0457678024       -0.9490450079
  H         6.2305327969        3.9273433104       -0.9661878459
  H         5.1635361248        3.1417213122       -0.2414568498
  O         2.0385274368        4.6208849127        7.7093070017
  H         2.3633113204        4.7186190473        6.7885579494
  H         2.8401186376        4.1646873785        8.0945992591
  O        -0.3723653034        3.1377044890        3.9735036817
  H        -0.9654542014        2.9082769098        4.7674945328
  H        -1.1002803723        3.4725335326        3.3716524466
  O         9.4718119023       -2.6509938362        1.9316711704
  H         8.6413461477       -3.1274208213        1.6406246598
  H        10.0931992281       -3.3923637935        1.9217969767
  O        19.1178059809       16.2243116824        8.1312590410
  H        18.5504279616       16.9733308866        8.3520419037
  H        19.7025303536       16.1663889857        8.9179544024
  O        13.6689753086       28.3362267005      -14.0820126746
  H        13.6881091262       27.5178991613      -14.6362366042
  H        12.8485617865       28.1732597865      -13.5798694100
  O         7.5376082607        1.0547181950       -5.4198686268
  H         7.3721367118        2.0044196459       -5.1837028454
  H         7.3379210517        0.6261118621       -4.5400067115
  O        17.3812897982       26.9549675272        4.1853089490
  H        17.2776048836       -6.0138395959        4.1286183747
  H        17.3850593674       27.0762874813        5.1405711137
  O        12.7042190701       20.4831274037       -3.4089613594
  H        12.0707878789       20.8324066316       -4.0630260792
  H        12.6139356759       19.5383637498       -3.5546327481
  O        12.5250979185        6.5129510098       10.3952328175
  H        12.3384229069        6.3837738288       11.3361960761
  H        11.8438976935        5.9547714426        9.8935066997
  O        17.4130766641       -4.2699902476        7.2698023134
  H        17.6303441143       -3.4591806047        6.8034572407
  H        17.0258919407       28.0520285364        8.1104439182
  O         2.5376472861       12.3851712826        4.2811312626
  H         2.1557894087       11.4900711756        4.4409431158
  H         2.9578415902       12.5598278170        5.1367320892
  O         1.3690646537        2.6171342127       -1.5213048365
  H         0.9639499850        3.3247905209       -0.9847650170
  H         1.9977021738        2.2336495599       -0.8558422546
  O        20.0543566516        9.3357195895        5.8317146055
  H        19.3784482603        8.9658667283        6.4511925510
  H        20.8030082865        8.6730607947        5.9828043285
  O        12.6924398605        6.2188642876       -7.8497129270
  H        13.1864318606        7.0431121669       -7.7936183641
  H        12.0745041358        6.2568925308       -7.0930285338
  O        -3.2481729370       12.3407057020      -13.1115280586
  H        -2.9583208312       11.5210216031      -12.5814295843
  H        -2.4696312907       12.3343458086      -13.6978236820
  O        21.1574750367        6.2690016328        3.4014412417
  H        20.4897157688        6.6917551367        2.8661569580
  H        20.7319052158        5.9896787900        4.2190279178
  O         7.2295207586       -0.5377155178       -3.0218190476
  H         7.5217896288       -1.4950163614       -3.1389621192
  H         6.2554403131       -0.6726286765       -3.0614483373
  O        19.5472060663        4.5796577786       10.4041913633
  H        18.7779357668        5.1607059542       10.3043886636
  H        19.1137300358        3.7182918600       10.4326957614
  O         2.8056488370       21.0026234073        1.5682805004
  H         3.0437976557       20.4428601731        0.7939288915
  H         2.5665544784       21.8354351866        1.0767274949
  O         6.3806475039       21.6458257533       10.4793460102
  H         5.6148948485       22.1451199650       10.9485223268
  H         5.9753207879       21.4641387164        9.4993234391
  O        13.5841438381        0.7739847826       -5.2614281977
  H        13.9286693310        0.3431855367       -4.4036233421
  H        13.1442288544        1.5390493594       -4.8764922058
  O        11.7807048103       28.0402484045        1.1702748734
  H        11.4876430788       -3.8757649078        0.2135151074
  H        12.6783442059       -4.2385470361        1.1134895150
  O        -0.2657100181       17.8613602758      -10.2160250749
  H        -1.1479662445       17.6666773779      -10.5886318071
  H         0.0839869076       18.5202647848      -10.8579665593
  O        -5.1657110673       -4.1049523373        2.4717812927
  H        -5.2487018978       -4.8463284550        1.8612238890
  H        -5.0001036299       -3.4163491139        1.8000619499
  O         8.4389836257        5.6584639672      -11.5279577011
  H         9.0913729802        6.0944644338      -12.1191996808
  H         9.0611470709        4.9928786857      -11.1605193808
  O        16.6781147087       -0.3743656629       -2.3634522506
  H        16.5366533778       -0.2933915515       -1.3871348376
  H        15.7032366212       -0.4478268123       -2.6655632529
  O        16.3089989327        7.6822751163       -3.9123317085
  H        16.2017416334        8.5988089093       -4.2942751652
  H        16.4995572048        7.1727488938       -4.7347242307
  O         6.4458299892       11.1985857557       11.5173893451
  H         6.5526528133       12.0900259498       11.1507621973
  H         5.5259265871       10.9408132736       11.2345865559
  O        20.2130231999       -2.2208321725       -2.3112330000
  H        19.3902610735       29.8100963656       -1.7344475530
  H        19.8484674315       -1.6870290035       -3.0672918641
  O        -6.7234950313        3.5657672486        1.5939961969
  H        -7.0622033088        3.9841201817        0.7426383819
  H        -7.5541835886        3.7184798113        2.1421213583
  O        20.7193661627       26.2719873047       -5.7078945469
  H        21.2769260525       25.7888682794       -6.3379210929
  H        21.2295893761       26.0889241925       -4.8749680039
  O        -4.6170056817       -2.7478623463       -2.2823944293
  H        -3.9795478156       -2.0435190951       -2.5599556036
  H        -4.5181478426       -2.7196181523       -1.2856942133
  O         7.6692862031        5.3149888073        4.0823860879
  H         7.6226655574        6.2374855653        4.4814156544
  H         8.2485918403        4.8876435900        4.7205660488
  O        24.3503391394        5.0879335131        9.4551403929
  H        24.4640027406        5.4609947778       10.3439241581
  H        23.4049826318        5.2101877065        9.2676050181
  O        11.9754438064       10.7267418909        6.2939615766
  H        12.2733548306       11.2232654147        7.1113733467
  H        11.0608811965       10.9803502602        6.1404145221
  O         0.5104474307       11.1324895537        0.4800416188
  H         0.5345179081       10.3269391809        1.0640854589
  H         0.5611122533       10.6924034696       -0.4206452728
  O         3.6256711048       16.8126190485        5.3806796786
  H         3.1835229376       17.6364182247        5.4527439824
  H         4.3158502374       16.8652459512        6.0591274945
  O         8.1732083761       24.3048281242      -12.3445651654
  H         7.3556671084       24.8430654411      -12.6194276576
  H         7.7676553909       23.9330905822      -11.5340028255
  O        29.6360429454       25.5131768166      -15.0028877132
  H        30.6111606591       25.5163177190      -14.8724583588
  H        -2.3924094940       25.5860409266      -15.9519957166
  O         2.9080614414       26.9217510031       -4.2254004249
  H         1.9591918306       26.6704200920       -3.8714833902
  H         3.2479402541       26.0342481112       -4.3991185708
  O         4.0149737920       -2.1290880313        4.9314924991
  H         4.8280930640       -2.1994217225        5.4325179169
  H         3.7666457861       -1.1696487108        4.9930585042
  O        10.6890690466       -3.3772852797       -1.4127348796
  H         9.7449782121       -3.2589113938       -1.1628367871
  H        10.9065955492       -2.4693445703       -1.7349359185
  O        15.8577195348       23.9702509226      -11.7115715625
  H        15.7891249041       23.9466181259      -12.7106309747
  H        15.6753987564       23.0115748031      -11.5476722373
  O        13.2392479764       12.9200275883        0.6528363052
  H        12.9285214735       11.9916312419        0.8488134089
  H        12.8850730695       13.3682365463        1.4377129862
  O        -2.7596178123       22.1490158527        0.0250041774
  H        -2.9791891582       21.2937013768       -0.4127047070
  H        -3.2826752578       22.0949170685        0.8473638805
  O         1.1170160919       25.2530674802        5.1811006973
  H         1.7679546807       25.9592588701        5.2220220204
  H         1.4581619263       24.6810547540        5.9176492409
  O        23.2222679690       -1.3244149123       -9.2953228348
  H        22.7507195793       -0.9298110831      -10.0536189435
  H        24.1578846986       -1.1889583046       -9.6747488759
  O        -2.6927012678       15.9970620319       -5.4668725014
  H        -2.6735715394       15.1055608219       -5.8875226790
  H        -3.1124027989       16.4968712906       -6.1935950725
  O        20.7243752675        9.2386786306       -7.2806251004
  H        21.4361146065        9.0916553714       -6.6267487789
  H        20.6415247433       10.2218144574       -7.2099787676
  O        13.2324187937       -2.5499523256      -10.8225974503
  H        12.2635792437       -2.6409092954      -10.7548187088
  H        13.3046933507       -1.6066110482      -10.9620934951
  O        22.8551538920       -0.1630686440       -6.4653957944
  H        22.8013202960       -0.1343244853       -7.4454962068
  H        22.2187111905       -0.8439908272       -6.2306938217
  O        13.7963182733        8.2611564195        8.8290733759
  H        13.3621084794        7.5592147760        9.4350871697
  H        13.1661006730        8.9909572584        8.9095353320
  O        21.4103514653       17.4481160581      -12.0329854506
  H        22.2451777522       17.0238747963      -11.7078341221
  H        20.9480164283       17.7267130875      -11.1474989630
  O        10.5855438981       15.8649592367      -13.1686097298
  H         9.6629024225       15.6611942533      -13.1925259366
  H        10.6068431994       16.8054344986      -12.9401047630
  O        16.1821404729       14.2006744894        5.3900862286
  H        16.2792551694       13.6985309271        6.2078051088
  H        16.1074058949       15.1433719867        5.6047493924
  O        26.4694993752       14.0290913654        1.0557516520
  H        26.9469953417       14.6674831274        1.6299947465
  H        25.6306268992       14.5813354437        0.9152352347
  O         9.7880128242        5.2360282313       -6.6260236426
  H         9.3524654607        5.5010630844       -7.4631965975
  H        10.0556547813        6.1571224329       -6.3039571312
  O        -3.5037820360       19.8577267044       -1.2622104697
  H        -2.9250837967       19.0991052129       -1.4913748846
  H        -4.3583595054       19.4457192147       -1.0420648983
  O         8.9030470903        0.2662550172        1.3924282676
  H         8.8185195993        0.5012784416        2.3828698916
  H         9.1627050999       -0.6770532277        1.4917487535
  O         9.4889262126       10.1484558890       -0.1340569901
  H        10.4793779008       10.2017667988       -0.1805818162
  H         9.4186389114       10.6501758050        0.6682942459
  O        19.7600726367       21.1447400303        8.2764247251
  H        18.7495457846       21.1184380155        8.1819688761
  H        19.9270975937       20.5908428869        7.4254679674
  O        11.3698927580       14.8285859508       -9.3344067250
  H        11.1146710797       14.4322995286      -10.2024969643
  H        11.4015435337       15.7774700410       -9.5654435565
  O        20.0824306071       18.3253860846       -9.7425429332
  H        19.1140612387       18.2647595118       -9.5806513573
  H        20.1529625276       19.2901727511       -9.8749291028