#     Step Nr.          Time[fs]        Kin.[a.u.]          Temp[K]            Pot.[a.u.]        Cons Qty[a.u.]        UsedTime[s]
         0            0.000000         3.843405441       300.000000000     -1337.000044898     -1333.156164434         0.000000000
         1            1.000000         3.522739838       274.970197047     -1336.574913564     -1333.050887138        44.980360935
         2            2.000000         3.479128392       271.566071717     -1336.561043828     -1333.079909696        11.961366955
         3            3.000000         3.576589563       279.173479197     -1336.686213526     -1333.106957417        11.972699279
         4            4.000000         3.508489256       273.857856748     -1336.521450727     -1333.009683967        11.975666847
         5            5.000000         3.781406366       295.160613967     -1336.884049634     -1333.098792980        12.032372229
         6            6.000000         3.641698786       284.255630170     -1336.642504281     -1332.996393303        11.337880533
         7            7.000000         3.632879385       283.567224995     -1336.593646318     -1332.955839129        11.344419220
         8            8.000000         3.985642998       311.102463094     -1337.048298151     -1333.057220056        11.390062997
         9            9.000000         3.785297127       295.464310329     -1336.722362214     -1332.931097549        11.339616479
        10           10.000000         3.741450532       292.041830312     -1336.705383167     -1332.957456633        12.013559639
        11           11.000000         3.725480880       290.795306647     -1336.708476938     -1332.976034527        11.392598512
        12           12.000000         3.676845633       286.999044647     -1336.574368205     -1332.890102908        11.374726497
        13           13.000000         4.086422982       318.968923079     -1337.093791035     -1332.999489633        12.015392253
        14           14.000000         3.982397462       310.849130264     -1336.938838871     -1332.948048524        11.335002268
        15           15.000000         3.832140504       299.120706539     -1336.761384981     -1332.920325794        11.366413126
        16           16.000000         4.042543444       315.543871658     -1337.063290397     -1333.011290846        12.024035228
        17           17.000000         3.913381789       305.462058207     -1336.857822598     -1332.934409040        11.339730326
        18           18.000000         3.971423946       309.992583919     -1336.975657492     -1332.993611388        11.347497355
        19           19.000000         3.855248287       300.924402498     -1336.871262423     -1333.004783790        12.001804763
        20           20.000000         3.644882729       284.504155338     -1336.571236635     -1332.914539925        11.986377917
        21           21.000000         4.033665198       314.850873267     -1337.082685095     -1333.036632563        11.991653867
        22           22.000000         4.010071829       313.009274456     -1337.044348288     -1333.021258773        11.978565065
        23           23.000000         3.842962036       299.965389637     -1336.845349630     -1332.988723393        11.972127488
        24           24.000000         3.856715187       301.038902531     -1336.937379003     -1333.066360370        12.005582545
        25           25.000000         3.642316196       284.303822641     -1336.645713021     -1332.988472804        11.965620054
        26           26.000000         3.865288475       301.708097180     -1336.957881112     -1333.077075340        12.013730286
        27           27.000000         3.858658005       301.190550687     -1336.967470017     -1333.092684712        11.990646530
        28           28.000000         3.548314048       276.966411841     -1336.559373516     -1332.994350430        12.023763958
        29           29.000000         3.797562685       296.421708045     -1336.913440461     -1333.098634509        11.975014720
        30           30.000000         3.837012445       299.500989677     -1336.891256608     -1333.036458836        12.023441879
        31           31.000000         3.850920214       300.586571411     -1336.902933480     -1333.033683091        12.003909139
        32           32.000000         3.842788963       299.951880304     -1336.961598419     -1333.099932124        11.338635145
        33           33.000000         3.498318363       273.063959785     -1336.502635770     -1332.984924830        11.959031485
        34           34.000000         3.764827773       293.866558973     -1336.832458842     -1333.047779325        12.010560369
        35           35.000000         3.957977394       308.943002839     -1337.042484797     -1333.064183729        11.321653446
        36           36.000000         3.765776399       293.940604703     -1336.757335731     -1332.970749419        11.989776678
        37           37.000000         3.898962370       304.336539266     -1336.963205548     -1333.042957082        11.992734717
        38           38.000000         3.828066189       298.802682743     -1336.827821058     -1332.977981639        11.348006830
        39           39.000000         3.960340267       309.127438750     -1336.966188086     -1332.983580384        11.357587449
        40           40.000000         4.096295176       319.739504853     -1337.172147720     -1333.053047943        11.357193606
        41           41.000000         3.690775454       288.086347682     -1336.625784189     -1332.911646439        11.330910807
        42           42.000000         3.803964039       296.921370682     -1336.791244821     -1332.963397459        12.014340324
        43           43.000000         4.023643876       314.068651123     -1337.022862206     -1332.974794615        11.986365059
        44           44.000000         4.023059936       314.023071236     -1336.962061414     -1332.913988903        11.949244834
        45           45.000000         4.142687076       323.360660659     -1337.154386250     -1332.986045818        11.338108763
        46           46.000000         3.838063356       299.583019360     -1336.761345608     -1332.896950208        11.335017934
        47           47.000000         3.885198327       303.262176179     -1336.817148311     -1332.904951229        11.364363700
        48           48.000000         4.170088735       325.499518456     -1337.194923709     -1332.997123513        11.303600499
        49           49.000000         3.892839368       303.858603559     -1336.814103788     -1332.892784363        11.942352770
        50           50.000000         3.861374723       301.402606236     -1336.817376706     -1332.926764048        11.985691285
        51           51.000000         3.850510527       300.554592953     -1336.833869479     -1332.953360899        11.975195345
        52           52.000000         3.899983518       304.416245756     -1336.849874601     -1332.919123836        11.949987015
        53           53.000000         4.196875964       327.590416456     -1337.251593795     -1333.023125707        11.318407506
        54           54.000000         3.851217808       300.609800320     -1336.815464188     -1332.931775395        11.292375648
        55           55.000000         3.676988447       287.010192132     -1336.659032114     -1332.948741817        11.352214206
        56           56.000000         3.886755963       303.383758685     -1336.946156050     -1333.025284332        11.975700261
        57           57.000000         3.816261271       297.881240704     -1336.804346841     -1332.953136600        11.977513911
        58           58.000000         3.931080271       306.843526983     -1336.985341978     -1333.018472843        11.305107495
        59           59.000000         3.779572570       295.017475588     -1336.812991779     -1332.996780898        11.321023360
        60           60.000000         3.678897987       287.159242731     -1336.649807890     -1332.933458373        11.307763733
        61           61.000000         4.058220406       316.767549079     -1337.159697753     -1333.063200545        11.302824678
        62           62.000000         3.914244851       305.529425228     -1336.946262108     -1332.992856530        11.970278908
        63           63.000000         3.719937002       290.362575003     -1336.738633466     -1332.978673543        11.936038811
        64           64.000000         3.738762670       291.832027146     -1336.827297648     -1333.047685757        11.929471243
        65           65.000000         3.670373658       286.493869595     -1336.678396693     -1332.966372533        11.949346825
        66           66.000000         3.989277410       311.386149890     -1337.090027252     -1333.058293143        11.958947957
        67           67.000000         3.909840246       305.185620366     -1336.988406758     -1333.035255904        11.983674573
        68           68.000000         3.658454167       285.563484446     -1336.648858596     -1332.946263897        11.307007482
        69           69.000000         3.909079362       305.126228969     -1336.999115711     -1333.045087385        11.937687969
        70           70.000000         3.878946970       302.774221669     -1336.931170714     -1333.006433664        11.932086667
        71           71.000000         3.878021810       302.702007549     -1336.944216968     -1333.019556466        11.959286513
        72           72.000000         3.835483686       299.381661232     -1336.945727652     -1333.062752555        12.611917244
        73           73.000000         3.622361558       282.746247792     -1336.627222435     -1332.956547637        11.980688136
        74           74.000000         3.978459895       310.541780400     -1337.075894719     -1333.048310924        11.944951298
        75           75.000000         4.054505727       316.477596910     -1337.152152113     -1333.047641568        11.975211443
        76           76.000000         3.817957708       298.013657362     -1336.858564330     -1332.989700323        11.945524367
        77           77.000000         3.880409741       302.888399410     -1336.970920567     -1333.038717205        11.957724141
        78           78.000000         3.773990437       294.581757888     -1336.792054015     -1332.965381318        11.987450732
        79           79.000000         3.944511667       307.891925038     -1337.009290888     -1333.011204556        11.972601796
        80           80.000000         4.022248867       313.959762640     -1337.124269774     -1333.047503112        11.995406523
        81           81.000000         3.701835854       288.949675748     -1336.697481647     -1332.940184371        11.958209436
        82           82.000000         3.904610861       304.777436605     -1336.984463832     -1333.023473894        11.993077118
        83           83.000000         4.019226251       313.723829990     -1337.081354761     -1333.004779443        11.310711121
        84           84.000000         3.935745780       307.207696914     -1336.962368401     -1332.968264982        12.013116397
        85           85.000000         3.951155286       308.410497898     -1337.044925200     -1333.034386983        11.313201485
        86           86.000000         3.662722435       285.896647419     -1336.679786020     -1332.956673301        11.362227993
        87           87.000000         3.803986715       296.923140697     -1336.855823822     -1332.990480095        11.370209487
        88           88.000000         4.012086501       313.166531295     -1337.140911206     -1333.066458122        11.357518084
        89           89.000000         3.773908620       294.575371550     -1336.809084257     -1332.971776957        11.962108769
        90           90.000000         3.839211391       299.672630167     -1336.942497166     -1333.038880352        11.977535995
        91           91.000000         3.819270600       298.116136216     -1336.911163745     -1333.026474218        11.951172223
        92           92.000000         3.837984561       299.576868992     -1336.905236079     -1333.000819384        11.938980427
        93           93.000000         3.991180520       311.534698662     -1337.139053763     -1333.080398960        11.956865188
        94           94.000000         3.666705252       286.207529333     -1336.718376205     -1332.983156125        11.988349581
        95           95.000000         3.688861779       287.936974300     -1336.769396809     -1333.011042684        11.961752126
        96           96.000000         3.916731144       305.723494703     -1337.047538091     -1333.060325758        11.938725717
        97           97.000000         3.836174508       299.435583910     -1336.856758090     -1332.949083731        11.952913105
        98           98.000000         3.929846877       306.747253505     -1337.015085662     -1333.012711865        11.945042605
        99           99.000000         3.785933039       295.513946935     -1336.825165431     -1332.965670038        12.001258479
       100          100.000000         3.766452854       293.993405995     -1336.780349326     -1332.939325192        11.943768151
       101          101.000000         4.036514877       315.073307116     -1337.115813366     -1333.003689255        11.357808443
       102          102.000000         3.819445253       298.129768845     -1336.815730962     -1332.919600967        11.971943628
       103          103.000000         3.772546139       294.469022084     -1336.755834001     -1332.905560444        11.970828332
       104          104.000000         3.876682654       302.597478679     -1336.896922628     -1332.941468695        11.983427817
       105          105.000000         3.852874707       300.739130899     -1336.788653679     -1332.855945700        11.972164243
       106          106.000000         4.058320370       316.775351852     -1337.073732775     -1332.934480357        12.611112462
       107          107.000000         3.862870555       301.519364588     -1336.825745341     -1332.880805095        12.641124774
       108          108.000000         3.719758897       290.348672844     -1336.649675128     -1332.846748442        12.593377385
       109          109.000000         3.981209963       310.756439092     -1336.979479489     -1332.913997371        13.248539004
       110          110.000000         3.899194279       304.354641074     -1336.821433678     -1332.836813979        13.236704636
       111          111.000000         3.906619190       304.934198260     -1336.852160832     -1332.858956389        12.593053095
       112          112.000000         3.878930125       302.772906812     -1336.853082565     -1332.886394658        12.007020110
       113          113.000000         3.766495421       293.996728570     -1336.670354526     -1332.814941201        13.271933807
       114          114.000000         4.037445981       315.145985206     -1337.029701911     -1332.902155855        12.570284279
       115          115.000000         3.910878597       305.266669591     -1336.872994194     -1332.870778096        12.608835943
       116          116.000000         3.696967182       288.569647772     -1336.619149116     -1332.829645032        13.227454755
       117          117.000000         3.790168405       295.844541742     -1336.773807807     -1332.889939758        13.267605763
       118          118.000000         3.731477236       291.263356912     -1336.663669873     -1332.837335561        11.991711032
       119          119.000000         3.883401302       303.121908023     -1336.861916399     -1332.882499916        11.952183645
       120          120.000000         3.857420136       301.093927852     -1336.844773713     -1332.890154248        11.946450422
       121          121.000000         3.628474345       283.223386166     -1336.557497643     -1332.830677753        11.950845437
       122          122.000000         3.853521232       300.789595895     -1336.877947769     -1332.924963378        11.927979607
       123          123.000000         3.868702539       301.974584627     -1336.854057733     -1332.884738612        11.987133604
       124          124.000000         3.770143215       294.281459960     -1336.730286137     -1332.858380215        12.585336253
       125          125.000000         3.787877286       295.665706676     -1336.799358019     -1332.908592730        11.926294945
       126          126.000000         3.637590049       283.934919498     -1336.575616675     -1332.834045005        11.965478988
       127          127.000000         3.875147781       302.477672965     -1336.874155110     -1332.893947564        11.992921995
       128          128.000000         3.971132540       309.969837990     -1337.000056712     -1332.922732658        11.979824251
       129          129.000000         3.729719747       291.126174717     -1336.681347156     -1332.844305438        11.989838699
       130          130.000000         3.838017198       299.579416453     -1336.851676324     -1332.905237466        11.950942589
       131          131.000000         3.833514425       299.227949000     -1336.812400358     -1332.869350842        11.316850943
       132          132.000000         3.858326900       301.164706080     -1336.830490944     -1332.861511342        11.940249432
       133          133.000000         3.915393078       305.619050915     -1336.962148617     -1332.934967018        11.317970244
       134          134.000000         3.653832258       285.202717758     -1336.603472624     -1332.836737152        11.957913052
       135          135.000000         3.786211677       295.535696253     -1336.766477620     -1332.866292144        11.970598364
       136          136.000000         3.941526649       307.658927175     -1336.955641084     -1332.899037194        11.930001158
       137          137.000000         3.802599848       296.814887648     -1336.767317730     -1332.848520351        11.937686294
       138          138.000000         3.829555123       298.918902658     -1336.855725240     -1332.908870292        11.935447101
       139          139.000000         3.696570575       288.538690310     -1336.676351776     -1332.861398892        11.940934675
       140          140.000000         3.765999949       293.958054101     -1336.745522755     -1332.860088876        11.285615835
       141          141.000000         3.958280317       308.966647694     -1337.001506074     -1332.922713736        11.963248180
       142          142.000000         3.728085206       290.998589354     -1336.695580501     -1332.845896181        11.302840983
       143          143.000000         3.744603133       292.287908975     -1336.743920011     -1332.876675468        11.973487249
       144          144.000000         3.827626569       298.768367880     -1336.841359574     -1332.890051457        11.973139280
       145          145.000000         3.818319748       298.041916695     -1336.798249456     -1332.855201537        11.971919037
       146          146.000000         3.947793400       308.148083299     -1336.990989001     -1332.917404115        11.295404371
       147          147.000000         3.748592870       292.599330988     -1336.725722528     -1332.850270060        11.341773771
       148          148.000000         3.742244210       292.103781422     -1336.715894102     -1332.845762814        11.326683125
       149          149.000000         3.978027637       310.508040150     -1337.027165825     -1332.920204718        11.293428570
       150          150.000000         3.873284388       302.332224448     -1336.857785511     -1332.854483146        12.002500474
       151          151.000000         3.893594358       303.917534915     -1336.912469953     -1332.887773887        11.380147271
       152          152.000000         3.869777706       302.058507657     -1336.902312530     -1332.900339266        11.325015243
       153          153.000000         3.830844382       299.019536736     -1336.824257308     -1332.860125896        11.314904056
       154          154.000000         4.031810169       314.706077518     -1337.101356109     -1332.935139230        11.276895689
       155          155.000000         3.862979707       301.527884515     -1336.897994439     -1332.899453286        11.911520867
       156          156.000000         3.758680674       293.386742400     -1336.778311459     -1332.882947494        11.968454834
       157          157.000000         3.889873354       303.627089085     -1336.974920199     -1332.947247401        11.958637342
       158          158.000000         3.836327965       299.447562105     -1336.875254821     -1332.899993902        11.941101318
       159          159.000000         3.920469581       306.015301299     -1337.016708730     -1332.956164845        11.940871589
       160          160.000000         3.832551045       299.152751672     -1336.917614084     -1332.943835567        11.925459171
       161          161.000000         3.712842908       289.808839931     -1336.751079426     -1332.895888484        11.966645684
       162          162.000000         3.923768187       306.272776563     -1337.037765406     -1332.970531833        11.925616130
       163          163.000000         3.850665344       300.566677349     -1336.928719574     -1332.933441258        11.912825465
       164          164.000000         3.763745508       293.782081972     -1336.822012467     -1332.912527976        11.304271866
       165          165.000000         3.786374420       295.548399323     -1336.875183793     -1332.941966048        11.298950916
       166          166.000000         3.702234367       288.980782007     -1336.735792896     -1332.885632770        11.316082006
       167          167.000000         3.892594629       303.839500268     -1336.975607549     -1332.934009918        11.289750706
       168          168.000000         3.870143593       302.087067247     -1336.944174064     -1332.923921173        11.296248298
       169          169.000000         3.697497737       288.611060727     -1336.715919310     -1332.867231597        11.281462643
       170          170.000000         3.847213951       300.297276163     -1336.929544902     -1332.930083947        11.306793112
       171          171.000000         3.847739124       300.338268948     -1336.894740642     -1332.893678907        11.321119834
       172          172.000000         3.886980294       303.401269024     -1336.937372295     -1332.895985993        11.291826773
       173          173.000000         3.906469007       304.922475679     -1336.984288056     -1332.922312758        11.299326437
       174          174.000000         3.739541558       291.892823819     -1336.753265501     -1332.857130004        11.302787596
       175          175.000000         3.901082713       304.502044289     -1336.962894727     -1332.904143526        11.314056784
       176          176.000000         3.955389475       308.741000845     -1337.016695191     -1332.902523084        11.310210334
       177          177.000000         3.832891425       299.179320250     -1336.850345678     -1332.857548940        11.303174727
       178          178.000000         3.896385732       304.135417744     -1336.966173886     -1332.908766063        11.331832189
       179          179.000000         3.839416435       299.688634972     -1336.864237772     -1332.862673997        11.281154526
       180          180.000000         3.931507155       306.876847772     -1336.962671114     -1332.867883436        11.312134478
       181          181.000000         4.010142361       313.014779899     -1337.079046312     -1332.904447714        11.293791238
       182          182.000000         3.817350967       297.966297751     -1336.822306396     -1332.839313847        11.285712605
       183          183.000000         3.888479599       303.518298428     -1336.936731732     -1332.881442614        11.342887968
       184          184.000000         3.924968718       306.366484939     -1336.980026394     -1332.887056201        11.287866773
       185          185.000000         3.876947405       302.618144015     -1336.917786833     -1332.871634082        11.328649567
       186          186.000000         3.943829386       307.838669090     -1337.034321793     -1332.920071327        11.362491611
       187          187.000000         3.804635430       296.973776601     -1336.848063539     -1332.871788510        11.302116577
       188          188.000000         3.874478818       302.425456547     -1336.923838804     -1332.876516385        11.286508709
       189          189.000000         4.007979208       312.845933300     -1337.092132855     -1332.910067352        11.358432451
       190          190.000000         3.847185575       300.295061269     -1336.873043440     -1332.850508669        11.929394607
       191          191.000000         3.851996206       300.670558802     -1336.929596907     -1332.901010293        11.360724088
       192          192.000000         3.828076490       298.803486815     -1336.909001825     -1332.903097553        11.305307874
       193          193.000000         3.827526628       298.760566879     -1336.879902007     -1332.873318556        11.316838538
       194          194.000000         3.963261764       309.355478445     -1337.074641257     -1332.931073768        11.993889533
       195          195.000000         3.810175964       297.406247274     -1336.872459056     -1332.880716680        11.946728675
       196          196.000000         3.789590566       295.799438090     -1336.856753094     -1332.884369291        11.960345348
       197          197.000000         3.904490585       304.768048410     -1337.007776814     -1332.919260972        11.326144075
       198          198.000000         3.839403453       299.687621686     -1336.903116802     -1332.878443154        11.321180824
       199          199.000000         3.870092467       302.083076562     -1336.967061568     -1332.910460907        11.314105898
       200          200.000000         3.776990038       294.815894065     -1336.856404704     -1332.891679422        11.924632771
       201          201.000000         3.752630402       292.914483703     -1336.812740136     -1332.871180923        11.677303864
       202          202.000000         3.946730857       308.065145666     -1337.062863036     -1332.925999149        11.303514834
       203          203.000000         3.877672665       302.674754817     -1336.964404501     -1332.895364458        11.980088191
       204          204.000000         3.845186973       300.139058806     -1336.934250166     -1332.896473592        11.360224497
       205          205.000000         3.881850834       303.000884978     -1336.991661757     -1332.916000477        11.296899466
       206          206.000000         3.836636413       299.471638211     -1336.911132612     -1332.879464929        11.373726875
       207          207.000000         3.954960279       308.707499598     -1337.073730129     -1332.922507984        11.288498340
       208          208.000000         3.872826715       302.296500398     -1336.969819034     -1332.899481423        11.321357746
       209          209.000000         3.763696822       293.778281711     -1336.829896556     -1332.867470082        11.283618346
       210          210.000000         3.895713954       304.082981614     -1337.015125385     -1332.919474505        11.294721140
       211          211.000000         3.871196228       302.169231421     -1336.957856108     -1332.885497550        11.996446066
       212          212.000000         3.892925265       303.865308325     -1336.989307647     -1332.893994005        11.970291309
       213          213.000000         3.884520283       303.209250903     -1336.998427250     -1332.910287147        11.962034252
       214          214.000000         3.757183377       293.269869696     -1336.818143154     -1332.856130858        11.319905238
       215          215.000000         3.878364124       302.728727126     -1336.984232484     -1332.899848665        11.304811673
       216          216.000000         3.873948051       302.384027111     -1336.981570854     -1332.900396783        11.319037514
       217          217.000000         3.777441871       294.851162188     -1336.860390850     -1332.874535264        11.305479648
       218          218.000000         3.835572725       299.388611224     -1336.959013465     -1332.913861483        11.284666657
       219          219.000000         3.787375230       295.626518320     -1336.880474603     -1332.882364270        11.312798515
       220          220.000000         3.854797612       300.889224745     -1336.966029259     -1332.899353349        11.286449226
       221          221.000000         3.884292956       303.191506715     -1337.013072270     -1332.915749477        11.295525109
       222          222.000000         3.760171685       293.503124426     -1336.843478437     -1332.869142743        11.283175429
       223          223.000000         3.854074868       300.832810393     -1336.975893697     -1332.906544096        11.288894469
       224          224.000000         3.877576265       302.667230189     -1336.997981588     -1332.904010368        11.282470696
       225          225.000000         3.855484747       300.942859567     -1336.960445492     -1332.887447894        11.271386866
       226          226.000000         3.910771166       305.258283975     -1337.037958754     -1332.908556175        11.286279846
       227          227.000000         3.809793713       297.376410428     -1336.899292412     -1332.869754399        11.285230113