#     Step Nr.          Time[fs]        Kin.[a.u.]          Temp[K]            Pot.[a.u.]        Cons Qty[a.u.]        UsedTime[s]
         0            0.000000         0.896367083       300.000000000     -3605.583538832     -3604.686696726         0.000000000
         1            1.000000         0.913063626       305.588071065     -3605.605471611     -3604.691516013        61.966312710
         2            2.000000         0.938176883       313.993084191     -3605.628056707     -3604.688557527         9.194510989
         3            3.000000         0.957132322       320.337172265     -3605.644482472     -3604.685578542         8.155765308
         4            4.000000         0.963918425       322.608374313     -3605.649046722     -3604.682888537         8.369349776
         5            5.000000         0.968228256       324.050807316     -3605.652507610     -3604.681554191         8.835669344
         6            6.000000         0.975965725       326.640416847     -3605.660679480     -3604.681484430         8.508758485
         7            7.000000         0.985129128       329.707264089     -3605.669931215     -3604.681046722       133.236930167
         8            8.000000         0.998183149       334.076240000     -3605.684510649     -3604.682020358         7.371471234
         9            9.000000         1.002720855       335.594938872     -3605.690806851     -3604.683199723         8.762531985
        10           10.000000         0.991330553       331.782783531     -3605.678653793     -3604.681836691         7.717292266
        11           11.000000         0.987790868       330.598106460     -3605.676010514     -3604.682116197         8.696826437
        12           12.000000         1.005715586       336.597228331     -3605.698759238     -3604.686297973         7.591347439
        13           13.000000         1.022983408       342.376497584     -3605.720645924     -3604.690238748         9.821615748
        14           14.000000         1.023705090       342.618033166     -3605.725012560     -3604.693171522         7.362326736
        15           15.000000         1.005204991       336.426340431     -3605.709735264     -3604.695660522         8.445725173
        16           16.000000         0.975228724       326.393754005     -3605.677148633     -3604.692310698         7.308278784
        17           17.000000         0.970893715       324.942894575     -3605.671905839     -3604.690659024         8.798494412
        18           18.000000         0.993759152       332.595597461     -3605.696165434     -3604.691285866         7.860175639
        19           19.000000         1.006424032       336.834334291     -3605.706873470     -3604.688527384         8.875677070
        20           20.000000         1.003611248       335.892939697     -3605.702029397     -3604.685667492         7.328079013
        21           21.000000         1.001477537       335.178819912     -3605.699656567     -3604.684579202         8.482245712
        22           22.000000         1.014964246       339.692609983     -3605.714607956     -3604.685167428         7.302857438
        23           23.000000         1.043682882       349.304286688     -3605.746804347     -3604.687724625         8.456872445
        24           24.000000         1.067262207       357.195916934     -3605.772863130     -3604.689227962         7.459671602
        25           25.000000         1.067096138       357.140336199     -3605.771833172     -3604.687340027         8.498111499
        26           26.000000         1.047353316       350.532723483     -3605.749142234     -3604.683341019         7.336158218
        27           27.000000         1.029475069       344.549154581     -3605.727927384     -3604.678940825         9.785355940
        28           28.000000         1.035919102       346.705871567     -3605.734283056     -3604.677767442         9.075324871
        29           29.000000         1.060416356       354.904718120     -3605.760854339     -3604.678711781         9.177130150
        30           30.000000         1.077046105       360.470434133     -3605.780187861     -3604.680230429         7.560883462
        31           31.000000         1.068309470       357.546419363     -3605.771914232     -3604.679467933         8.703759590
        32           32.000000         1.053154423       352.474262960     -3605.756999263     -3604.678462816         7.617916999
        33           33.000000         1.055773368       353.350782658     -3605.761883267     -3604.679460556         9.398892051
        34           34.000000         1.072873141       359.073808438     -3605.780339650     -3604.679508688         8.078057703
        35           35.000000         1.082686437       362.358164624     -3605.792039066     -3604.680037801         8.724615866
        36           36.000000         1.062078680       355.461071627     -3605.770519937     -3604.677743994         7.644554058
        37           37.000000         1.027365071       343.842971381     -3605.733326792     -3604.673891737         8.671859853
        38           38.000000         1.021349330       341.829597467     -3605.727879240     -3604.673096330         7.527013419
        39           39.000000         1.049252469       351.168340115     -3605.760262264     -3604.676182695         8.810604706
        40           40.000000         1.073170050       359.173179306     -3605.787044454     -3604.677599076         8.057456475
        41           41.000000         1.071355812       358.565982272     -3605.785914358     -3604.676796329         8.590890434
        42           42.000000         1.056576481       353.619572193     -3605.770571358     -3604.674735430         7.532621376
        43           43.000000         1.054308119       352.860386786     -3605.768799023     -3604.673728778         9.122059677
        44           44.000000         1.070385320       358.241173993     -3605.788489259     -3604.675813691         7.540925788
        45           45.000000         1.078284458       360.884891408     -3605.798172345     -3604.676035155         8.603953207
        46           46.000000         1.069843767       358.059924555     -3605.790194238     -3604.674918653         8.051897055
        47           47.000000         1.058808264       354.366514900     -3605.780160056     -3604.674341694         8.739332806
        48           48.000000         1.058415042       354.234909650     -3605.781777534     -3604.674773090         7.886414593
        49           49.000000         1.068913432       357.748555932     -3605.795729327     -3604.676631926         8.688067490
        50           50.000000         1.078003531       360.790869512     -3605.808150620     -3604.678345701         7.541530669
        51           51.000000         1.072609801       358.985672870     -3605.804830942     -3604.678791393         9.192145023
        52           52.000000         1.056116377       353.465582375     -3605.788306914     -3604.677143870         7.915790051
        53           53.000000         1.044428680       349.553893606     -3605.777549260     -3604.676478381         8.771055760
        54           54.000000         1.039762459       347.992182703     -3605.773851505     -3604.675867898         8.937495878
        55           55.000000         1.035979839       346.726199080     -3605.770271725     -3604.674504988         8.815998461
        56           56.000000         1.032849078       345.678382504     -3605.767185984     -3604.672998411         7.615146685
        57           57.000000         1.029795734       344.656476329     -3605.765561143     -3604.672890762         8.780597845
        58           58.000000         1.023925146       342.691682396     -3605.762520612     -3604.674203891         7.565426681
        59           59.000000         1.026731964       343.631080390     -3605.770941843     -3604.678318122         8.743440673
        60           60.000000         1.038140819       347.449445382     -3605.784991109     -3604.679462672         7.625432212
        61           61.000000         1.034387934       346.193413550     -3605.778835038     -3604.675571586         8.809551649
        62           62.000000         1.025153481       343.102787008     -3605.770018931     -3604.674525995         7.641822768
        63           63.000000         1.015837038       339.984719583     -3605.762617486     -3604.675007170         8.788816879
        64           64.000000         1.002098732       335.386724264     -3605.749703938     -3604.674433521         7.645176632
        65           65.000000         0.993300837       332.442206804     -3605.747769916     -3604.679936509         8.793923318
        66           66.000000         0.994555698       332.862189067     -3605.760043884     -3604.689623411         7.603500320
        67           67.000000         1.007257703       337.113350698     -3605.776852960     -3604.692412056         8.785283679
        68           68.000000         1.021789280       341.976841573     -3605.788421205     -3604.688132873         8.002999462
        69           69.000000         1.022708792       342.284587904     -3605.787689532     -3604.685173294         8.826977847
        70           70.000000         1.017829718       340.651638426     -3605.782380233     -3604.683453926         7.589454651
        71           71.000000         1.021323828       341.821062342     -3605.784806066     -3604.681114424         8.822084205
        72           72.000000         1.030851683       345.009885740     -3605.794702335     -3604.680219438         7.530682556
        73           73.000000         1.025019997       343.058111861     -3605.789856622     -3604.679953617         8.758383173
        74           74.000000         1.009487172       337.859519136     -3605.772402010     -3604.676807435         7.557193957
        75           75.000000         1.006191561       336.756529765     -3605.767181547     -3604.673686050         8.765768230
        76           76.000000         1.009142267       337.744084896     -3605.770804952     -3604.673179101         7.557771586
        77           77.000000         1.012385392       338.829507869     -3605.776029241     -3604.673992425         8.888572158
        78           78.000000         1.014536420       339.549423348     -3605.779448498     -3604.674103683         7.547562191
        79           79.000000         1.017400513       340.507990313     -3605.783617968     -3604.674261919         8.847535232
        80           80.000000         1.014711558       339.608039038     -3605.780939395     -3604.673136487         8.008371554
        81           81.000000         1.006429431       336.836141121     -3605.770221839     -3604.669582553         9.133469563
        82           82.000000         1.011297990       338.465571374     -3605.775765929     -3604.669153152         7.670869973
        83           83.000000         1.024663136       342.938676050     -3605.790973857     -3604.669890967         8.730458099
        84           84.000000         1.031238456       345.139332569     -3605.798464306     -3604.669696921         7.369141029
        85           85.000000         1.029501725       344.558075990     -3605.797343933     -3604.669205941         8.603713177
        86           86.000000         1.027352911       343.838901787     -3605.796722703     -3604.669632200         7.728659773
        87           87.000000         1.027599999       343.921598307     -3605.798243518     -3604.669809257         8.489692539
        88           88.000000         1.033733961       345.974539051     -3605.805525098     -3604.669859602         7.431949705
        89           89.000000         1.039194503       347.802096744     -3605.813508103     -3604.671279545         8.728122450
        90           90.000000         1.023789106       342.646151916     -3605.797272025     -3604.669351273         7.620526407
        91           91.000000         0.999930039       334.660896620     -3605.771403270     -3604.666267031         9.090267330
        92           92.000000         0.997170400       333.737288687     -3605.770419435     -3604.666988338         7.522280740
        93           93.000000         1.009309967       337.800211496     -3605.785280147     -3604.668656000         8.849555725
        94           94.000000         1.015597876       339.904675809     -3605.793128837     -3604.669156750         7.701375369
        95           95.000000         1.008291517       337.459352051     -3605.787017830     -3604.669293878         8.490313502
        96           96.000000         0.995778463       333.271429147     -3605.774621068     -3604.668364342         7.495365694
        97           97.000000         0.997627071       333.890129364     -3605.776927533     -3604.667785550         8.781814734
        98           98.000000         1.015851248       339.989475571     -3605.797788310     -3604.669377576         7.611574149
        99           99.000000         1.019371077       341.167507084     -3605.801657133     -3604.668669406         9.410704603
       100          100.000000         1.002599668       335.554379736     -3605.782736203     -3604.665467169         7.583247149
       101          101.000000         0.993103792       332.376258750     -3605.773892931     -3604.665080771         8.836334379
       102          102.000000         0.999311026       334.453722694     -3605.782283299     -3604.666227983         7.585055184
       103          103.000000         1.009660972       337.917687224     -3605.794290288     -3604.666840266         8.678424047
       104          104.000000         1.015557084       339.891023420     -3605.802473865     -3604.668071715         7.593262529
       105          105.000000         1.011113530       338.403835701     -3605.799335042     -3604.668315283         8.810044969
       106          106.000000         1.007541219       337.208239162     -3605.795612556     -3604.667104056         7.559961235
       107          107.000000         1.016603431       340.241219318     -3605.806912079     -3604.668273407         8.724808190
       108          108.000000         1.021016102       341.718071017     -3605.812059955     -3604.667927578         7.636636630
       109          109.000000         1.014156079       339.422129214     -3605.804646101     -3604.666286941         8.786470030
       110          110.000000         1.009494672       337.862029200     -3605.801471865     -3604.666687294         8.134613479
       111          111.000000         1.011004381       338.367305065     -3605.804877808     -3604.667492887         8.733761823
       112          112.000000         1.019211110       341.113968682     -3605.816786395     -3604.670092675         7.554745860
       113          113.000000         1.026450054       343.536729668     -3605.827817347     -3604.672766108         8.815026410
       114          114.000000         1.028598314       344.255718598     -3605.833624602     -3604.675291505         7.555770604
       115          115.000000         1.023706953       342.618656695     -3605.832251959     -3604.677667673         9.141180722
       116          116.000000         1.022083862       342.075433769     -3605.830952076     -3604.676842187         7.531484069
       117          117.000000         1.021793506       341.978256194     -3605.827817392     -3604.672840775         8.762717135
       118          118.000000         1.017504040       340.542639038     -3605.821156660     -3604.669305675         7.582533645
       119          119.000000         1.019969337       341.367735337     -3605.823860859     -3604.668372995         8.787610568
       120          120.000000         1.025654810       343.270573779     -3605.830645492     -3604.668286506         7.651510483
       121          121.000000         1.030747895       344.975149575     -3605.836176168     -3604.667521512         8.781388706
       122          122.000000         1.040399479       348.205383262     -3605.851551731     -3604.672022156         7.575089255
       123          123.000000         1.047569377       350.605035626     -3605.867514978     -3604.679567991         8.750585530
       124          124.000000         1.055967324       353.415696878     -3605.878103650     -3604.680485819         8.009426476
       125          125.000000         1.060520830       354.939683794     -3605.878124062     -3604.674654105         8.733477972
       126          126.000000         1.050592767       351.616916782     -3605.863756598     -3604.668900968         7.626050496
       127          127.000000         1.043504700       349.244652089     -3605.854992110     -3604.665905079         8.800738122
       128          128.000000         1.051333856       351.864947613     -3605.863775496     -3604.665524496         7.513026241
       129          129.000000         1.056545058       353.609055184     -3605.869920601     -3604.665099199         8.954125784
       130          130.000000         1.045421104       349.886042308     -3605.859254080     -3604.664184653         7.870800365
       131          131.000000         1.023824633       342.658042527     -3605.836359841     -3604.661522535         8.822309725
       132          132.000000         1.020240295       341.458420784     -3605.832856943     -3604.660246932         7.562134081
       133          133.000000         1.040739260       348.319102639     -3605.858092486     -3604.663606672         8.816886140
       134          134.000000         1.049440548       351.231287305     -3605.869415837     -3604.664820216         7.615008133
       135          135.000000         1.031850439       345.344153639     -3605.851991864     -3604.663570393         8.749027655
       136          136.000000         1.010156754       338.083617833     -3605.829102410     -3604.660975793         7.418287916
       137          137.000000         1.010830692       338.309174172     -3605.830739428     -3604.660549265         8.779038494
       138          138.000000         1.027466358       343.876870730     -3605.850546802     -3604.662314437         7.417341314
       139          139.000000         1.031577920       345.252945788     -3605.855920662     -3604.662148025         9.014295174
       140          140.000000         1.020768367       341.635158185     -3605.845210390     -3604.660814773         7.750496516
       141          141.000000         1.011861858       338.654289326     -3605.836386746     -3604.659472653         8.838888878
       142          142.000000         1.020022750       341.385611781     -3605.846259562     -3604.659755671         7.938268457
       143          143.000000         1.039317150       347.843144924     -3605.869854384     -3604.662601859         9.521804448
       144          144.000000         1.045443831       349.893648850     -3605.878706251     -3604.663845255         7.520394463
       145          145.000000         1.033218335       345.801966925     -3605.867324271     -3604.663200773         8.725955537
       146          146.000000         1.024502880       342.885040867     -3605.860127900     -3604.663238840         7.483216735
       147          147.000000         1.029643357       344.605477980     -3605.868877274     -3604.665363242         9.173936216
       148          148.000000         1.030023194       344.732603557     -3605.870780137     -3604.665391332         7.579357693
       149          149.000000         1.018552412       340.893512824     -3605.857820271     -3604.662409315         8.694631038
       150          150.000000         1.016670586       340.263695072     -3605.856187311     -3604.661171174         7.870925833
       151          151.000000         1.024632056       342.928274123     -3605.866892570     -3604.662420317         8.709428679
       152          152.000000         1.022120411       342.087666193     -3605.865109069     -3604.661645595         7.653904773
       153          153.000000         1.012263603       338.788746966     -3605.856341574     -3604.661237602         8.728810608
       154          154.000000         1.006666779       336.915577773     -3605.852290918     -3604.661296399         7.610342370
       155          155.000000         1.010652192       338.249432944     -3605.857821033     -3604.661354726         8.736513598
       156          156.000000         1.019969335       341.367734566     -3605.869833073     -3604.662552590         7.486771805
       157          157.000000         1.016415097       340.178187007     -3605.866655726     -3604.661425885         8.719371360
       158          158.000000         1.005944304       336.673776836     -3605.855232550     -3604.658978730         7.886465410
       159          159.000000         1.010878249       338.325090690     -3605.862492492     -3604.659814344         8.717292784
       160          160.000000         1.023784647       342.644659874     -3605.883183324     -3604.666094682         7.572066719
       161          161.000000         1.028842311       344.337380466     -3605.892823942     -3604.669157339         8.736734029
       162          162.000000         1.025382508       343.179438724     -3605.885883093     -3604.664150889         7.966080792
       163          163.000000         1.018554107       340.894079868     -3605.877767445     -3604.661342747         9.171125682
       164          164.000000         1.020029413       341.387841713     -3605.881597959     -3604.662179249         7.571574001
       165          165.000000         1.027122132       343.761663520     -3605.890620847     -3604.662582363         9.161498161
       166          166.000000         1.031979296       345.387280174     -3605.898015291     -3604.663580405         7.508724082
       167          167.000000         1.023497127       342.548431319     -3605.893237129     -3604.665743960         8.792008070
       168          168.000000         1.016333516       340.150883019     -3605.891872128     -3604.670011568         7.537435329
       169          169.000000         1.030781309       344.986332743     -3605.905896450     -3604.668050471         9.021785621
       170          170.000000         1.044927971       349.720998707     -3605.916390333     -3604.662834802         7.773553684
       171          171.000000         1.036356953       346.852413258     -3605.906962749     -3604.660404892         8.767581344
       172          172.000000         1.019482594       341.204830121     -3605.888755955     -3604.657513853         7.584929353
       173          173.000000         1.020847312       341.661579663     -3605.890974179     -3604.656819232         9.202048033
       174          174.000000         1.039474407       347.895776264     -3605.912614836     -3604.658267983         7.566499250
       175          175.000000         1.047179090       350.474412790     -3605.922361898     -3604.658720624         8.953909868
       176          176.000000         1.031530618       345.237114774     -3605.906368837     -3604.656786184         7.547713783
       177          177.000000         1.015391200       339.835504603     -3605.889074023     -3604.654062210         8.790908111
       178          178.000000         1.024611366       342.921349736     -3605.900939196     -3604.655143915         7.535249580
       179          179.000000         1.039903548       348.039403076     -3605.919101857     -3604.656430770         8.776399750
       180          180.000000         1.040669742       348.295836236     -3605.920629663     -3604.655592048         7.527016420
       181          181.000000         1.033013220       345.733318285     -3605.913132122     -3604.654151384         8.738249164
       182          182.000000         1.031609712       345.263586097     -3605.912064739     -3604.652891703         8.032572899
       183          183.000000         1.038987591       347.732846589     -3605.922058468     -3604.653904309         9.038393816
       184          184.000000         1.037889190       347.365229000     -3605.922626269     -3604.653958479         7.564066768
       185          185.000000         1.023110198       342.418932311     -3605.907239947     -3604.651748055         9.129509179
       186          186.000000         1.010608918       338.234949916     -3605.895992168     -3604.651419301         7.697581315
       187          187.000000         1.000531647       334.862245309     -3605.887921683     -3604.651863835         9.560322933
       188          188.000000         0.985226774       329.739944462     -3605.873729242     -3604.651438529         7.759078929
       189          189.000000         0.968635790       324.187202338     -3605.857810008     -3604.650605074         8.730948159
       190          190.000000         0.964917994       322.942914571     -3605.855447949     -3604.650482023         8.079563534
       191          191.000000         0.978192573       327.385707815     -3605.871184748     -3604.651469421         8.646275727
       192          192.000000         0.993036437       332.353716138     -3605.888424818     -3604.652378115         7.526763041
       193          193.000000         0.990074355       331.362353726     -3605.886105765     -3604.651530396         8.775103010
       194          194.000000         0.977572576       327.178204418     -3605.872477649     -3604.648930840         7.505896838
       195          195.000000         0.979095502       327.687904000     -3605.879417136     -3604.652890130         8.691482441
       196          196.000000         0.996032379       333.356411026     -3605.903165689     -3604.658237942         7.952285370
       197          197.000000         1.003039672       335.701642091     -3605.908623220     -3604.655210482         8.730724793
       198          198.000000         0.983173937       329.052892241     -3605.885682897     -3604.650670304         7.560212947
       199          199.000000         0.961862511       321.920292254     -3605.864717716     -3604.649587290         9.047978809
       200          200.000000         0.964920878       322.943879583     -3605.869564245     -3604.649969120         7.495898014
       201          201.000000         0.988853188       330.953648367     -3605.897330592     -3604.652385859         8.815153560
       202          202.000000         0.999542840       334.531307241     -3605.915627580     -3604.658554987         7.938039321
       203          203.000000         0.976425534       326.794307621     -3605.900801040     -3604.665418701         8.755353121
       204          204.000000         0.961383031       321.759817750     -3605.885303282     -3604.663569705         7.606845753
       205          205.000000         0.978631330       327.532552741     -3605.897436220     -3604.657067097         8.711684316
       206          206.000000         0.989988793       331.333717553     -3605.906774396     -3604.653645231         7.573888050
       207          207.000000         0.979364703       327.778001444     -3605.896151070     -3604.652245718         8.761008551
       208          208.000000         0.965818058       323.244151867     -3605.883142874     -3604.651405411         7.576705597
       209          209.000000         0.964655690       322.855125352     -3605.882649907     -3604.650713026         8.651561942
       210          210.000000         0.978467004       327.477555411     -3605.901118706     -3604.654006270         7.480879886
       211          211.000000         0.989964285       331.325515176     -3605.918320878     -3604.658332853         8.657755725
       212          212.000000         0.994417731       332.816013519     -3605.919653428     -3604.653823574         7.547415543
       213          213.000000         0.993729782       332.585767941     -3605.914605782     -3604.648072720         8.724993572
       214          214.000000         1.001408686       335.155776447     -3605.923196610     -3604.647588056         7.481795739
       215          215.000000         1.016134118       340.084147720     -3605.940601016     -3604.648852360         8.809635624
       216          216.000000         1.018018001       340.714653740     -3605.943031801     -3604.647967666         7.894520016
       217          217.000000         1.008958059       337.682433318     -3605.934649157     -3604.647212619         8.765801540
       218          218.000000         0.998565351       334.204156974     -3605.924892950     -3604.646426472         7.585572619
       219          219.000000         0.994583734       332.871572256     -3605.921391453     -3604.645492129         9.086510686
       220          220.000000         1.001742043       335.267345842     -3605.930212793     -3604.645737109         7.371052537
       221          221.000000         1.007516405       337.199934472     -3605.938738698     -3604.647058749         8.632493908
       222          222.000000         0.994708640       332.913376173     -3605.926139684     -3604.645839104         7.338095417
       223          223.000000         0.976187053       326.714491708     -3605.906871429     -3604.643685346         8.897944083
       224          224.000000         0.975863866       326.606326092     -3605.908595705     -3604.644341438         7.562707528
       225          225.000000         0.984880052       329.623902037     -3605.919776224     -3604.645110677         8.763676101
       226          226.000000         0.986728416       330.242520689     -3605.922622371     -3604.644706487         7.892797811
       227          227.000000         0.980191860       328.054837681     -3605.917080561     -3604.644302990         9.129992893