#     Step Nr.          Time[fs]        Kin.[a.u.]          Temp[K]            Pot.[a.u.]        Cons Qty[a.u.]        UsedTime[s]
         0            0.000000         3.843405441       300.000000000     -1250.912827489     -1247.068947026         0.000000000
         1            1.000000         3.608862866       281.692596922     -1250.646831887     -1247.036671015        52.690053893
         2            2.000000         3.474829580       271.230524540     -1250.495796086     -1247.018926991        12.700088698
         3            3.000000         3.621405469       282.671619519     -1250.705792692     -1247.081666947        12.722053351
         4            4.000000         3.693719659       288.316159891     -1250.747731880     -1247.050633932        12.703981817
         5            5.000000         3.732491738       291.342544652     -1250.771734069     -1247.035225624        12.760247262
         6            6.000000         3.708102252       289.438804323     -1250.704986123     -1246.992250347        12.737927431
         7            7.000000         3.791005027       295.909844926     -1250.730311715     -1246.934075211        12.713480383
         8            8.000000         4.040039950       315.348459484     -1251.015817490     -1246.969927750        12.742344458
         9            9.000000         3.950148687       308.331927008     -1250.878755442     -1246.922094019        12.089638121
        10           10.000000         3.754362454       293.049680380     -1250.641384585     -1246.879851096        12.053189987
        11           11.000000         3.766715413       294.013900183     -1250.633449463     -1246.858932458        12.049173778
        12           12.000000         3.878473091       302.737232639     -1250.720605835     -1246.833702693        12.725022459
        13           13.000000         4.098011826       319.873499300     -1250.984299061     -1246.877190865        12.708943302
        14           14.000000         4.050024994       316.127849862     -1250.916735013     -1246.856886020        12.100483246
        15           15.000000         3.916132563       305.676771988     -1250.746815353     -1246.820106435        12.701966511
        16           16.000000         4.060907794       316.977315256     -1250.946988085     -1246.874727500        12.073082617
        17           17.000000         4.057626197       316.721167662     -1250.936672975     -1246.866861381        12.716904838
        18           18.000000         3.935252291       307.169177258     -1250.792039996     -1246.843740711        12.692282792
        19           19.000000         3.810782532       297.453593471     -1250.671843623     -1246.847160006        12.700824235
        20           20.000000         3.763584555       293.769518638     -1250.602780774     -1246.824463909        12.735581648
        21           21.000000         4.032332564       314.746853468     -1250.940116215     -1246.892203335        12.703907715
        22           22.000000         4.066652113       317.425692549     -1250.972497875     -1246.889350300        12.740149673
        23           23.000000         3.824362436       298.513583427     -1250.726414933     -1246.884626260        12.699324243
        24           24.000000         3.771850178       294.414698280     -1250.744165203     -1246.953991103        12.722977594
        25           25.000000         3.755840083       293.165017903     -1250.726698611     -1246.951657578        12.078133347
        26           26.000000         3.834701844       299.320633967     -1250.823541914     -1246.968769198        12.029989723
        27           27.000000         3.789700583       295.808025525     -1250.800061060     -1246.989420022        12.756645488
        28           28.000000         3.603882639       281.303861453     -1250.589700887     -1246.964047566        12.693370217
        29           29.000000         3.808573744       297.281184775     -1250.807618979     -1246.976478830        12.721470680
        30           30.000000         3.979810863       310.647231272     -1251.017661304     -1247.014455089        12.725867221
        31           31.000000         3.891067218       303.720277040     -1250.895045789     -1246.979723786        12.693749409
        32           32.000000         3.768631276       294.163444396     -1250.786748983     -1246.993017280        12.711246844
        33           33.000000         3.601375593       281.108172015     -1250.576042786     -1246.948767833        12.078979250
        34           34.000000         3.788943815       295.748955396     -1250.787582819     -1246.971976351        12.692164795
        35           35.000000         3.983403825       310.927682705     -1251.026117866     -1247.015258694        12.714265307
        36           36.000000         3.826411276       298.673507210     -1250.776961186     -1246.922278095        12.087971861
        37           37.000000         3.861734537       301.430691831     -1250.825283392     -1246.934471247        12.714689927
        38           38.000000         3.951816447       308.462105333     -1250.927501965     -1246.945783224        12.054852881
        39           39.000000         4.021095713       313.869752277     -1250.974663527     -1246.922801415        12.064111903
        40           40.000000         4.028253855       314.428486627     -1251.005767339     -1246.945838507        12.048478575
        41           41.000000         3.734385814       291.490388232     -1250.676843193     -1246.909875881        12.091123071
        42           42.000000         3.787182619       295.611483881     -1250.704584514     -1246.883954190        12.736459626
        43           43.000000         4.055227424       316.533929517     -1250.983388510     -1246.893815382        12.704860872
        44           44.000000         4.036003001       315.033352263     -1250.898354638     -1246.827041896        12.732684718
        45           45.000000         3.996233771       311.929134059     -1250.881774097     -1246.849233186        12.703669475
        46           46.000000         3.845721390       300.180773148     -1250.700071326     -1246.817040019        12.719799524
        47           47.000000         3.889052775       303.563038122     -1250.740692193     -1246.813334341        12.711423963
        48           48.000000         4.074085702       318.005927096     -1251.036344786     -1246.922915522        12.721472599
        49           49.000000         3.831653550       299.082696957     -1250.756482549     -1246.884417703        12.720635688
        50           50.000000         3.723333099       290.627659940     -1250.669890126     -1246.905123605        12.687090365
        51           51.000000         3.849372054       300.465728615     -1250.837058237     -1246.945245693        12.741254751
        52           52.000000         3.927950012       306.599192204     -1251.018567018     -1247.047141678        13.405193726
        53           53.000000         4.032552131       314.763991935     -1251.192391796     -1247.115286416        14.049841395
        54           54.000000         3.760555950       293.533118544     -1250.883509987     -1247.077316515        14.002773350
        55           55.000000         3.610110738       281.790000551     -1250.723523429     -1247.066762069        12.764644463
        56           56.000000         3.856435644       301.017082629     -1251.070321270     -1247.166244460        13.383211875
        57           57.000000         3.835886612       299.413111911     -1251.009083485     -1247.124538867        13.390802387
        58           58.000000         3.792437566       296.021662866     -1250.978996621     -1247.136894525        13.360709965
        59           59.000000         3.727270234       290.934976060     -1250.905313497     -1247.127396868        13.378442079
        60           60.000000         3.714333763       289.925209779     -1250.855957522     -1247.090026832        13.399145488
        61           61.000000         3.998653799       312.118031224     -1251.247044896     -1247.195827319        14.043049091
        62           62.000000         3.865835242       301.750775518     -1251.049088810     -1247.129682897        14.030099645
        63           63.000000         3.632763282       283.558162484     -1250.814765682     -1247.127469514        15.296702232
        64           64.000000         3.754170919       293.034729951     -1250.916374702     -1247.106755242        14.048009500
        65           65.000000         3.833510323       299.227628806     -1250.933940838     -1247.044060025        14.689624904
        66           66.000000         4.017475711       313.587190233     -1251.150488041     -1247.075687170        14.047332453
        67           67.000000         3.941061935       307.622653563     -1251.062324218     -1247.062940310        14.047561754
        68           68.000000         3.742351728       292.112173824     -1250.835233060     -1247.033580571        15.350169236
        69           69.000000         4.010271665       313.024872786     -1251.174253447     -1247.103702107        15.317339443
        70           70.000000         4.057785315       316.733587700     -1251.202266652     -1247.083153841        15.338419119
        71           71.000000         3.926063353       306.451927582     -1250.999580100     -1247.011112885        15.281521495
        72           72.000000         3.896134427       304.115801943     -1251.023815594     -1247.064203476        15.325360019
        73           73.000000         3.831411322       299.063789695     -1250.932419570     -1247.036460314        15.303304235
        74           74.000000         4.121064867       321.672922354     -1251.281094822     -1247.094374079        14.703614693
        75           75.000000         4.157579435       324.523095312     -1251.361549373     -1247.137108371        14.702082206
        76           76.000000         3.843297742       299.991593468     -1250.914812502     -1247.003432663        14.674198333
        77           77.000000         3.909578272       305.165171772     -1250.980887368     -1247.002035108        14.039042914
        78           78.000000         3.943917155       307.845519985     -1251.001356377     -1246.986945993        14.007097594
        79           79.000000         3.992015103       311.599842656     -1251.059473841     -1246.995713316        14.027980398
        80           80.000000         3.975989224       310.348930224     -1251.032410320     -1246.983390460        12.720220588
        81           81.000000         3.681100929       287.331195079     -1250.673764823     -1246.918379938        13.369279409
        82           82.000000         3.872856447       302.298821180     -1250.929326047     -1246.980970667        13.386688447
        83           83.000000         4.055213673       316.532856235     -1251.147064617     -1247.015072396        13.360960266
        84           84.000000         3.877045053       302.625766006     -1250.927846787     -1246.972710541        13.372174211
        85           85.000000         3.863102525       301.537471150     -1250.937782871     -1246.995299205        12.713629348
        86           86.000000         3.754285240       293.043653395     -1250.761898482     -1246.926963121        12.743827740
        87           87.000000         3.907349651       304.991215004     -1250.888466568     -1246.899204006        12.702320537
        88           88.000000         4.089581513       319.215464642     -1251.139534581     -1246.966710387        12.734368322
        89           89.000000         3.773253886       294.524265789     -1250.729371114     -1246.871532526        12.731699148
        90           90.000000         3.787905440       295.667904232     -1250.782218387     -1246.908446095        12.701024739
        91           91.000000         3.926256563       306.467008711     -1250.947613619     -1246.934193223        12.706978176
        92           92.000000         3.935245614       307.168656043     -1250.921077665     -1246.897336167        12.676976565
        93           93.000000         4.007590826       312.815617849     -1251.056246910     -1246.958797328        12.705358921
        94           94.000000         3.728658939       291.043372523     -1250.711004602     -1246.891139150        12.703626385
        95           95.000000         3.779100898       294.980658838     -1250.758258376     -1246.886661330        12.882434592
        96           96.000000         4.087335522       319.040152104     -1251.144852178     -1246.963679920        12.721414501
        97           97.000000         3.918141943       305.833615778     -1250.869806458     -1246.856430038        12.689914590
        98           98.000000         3.857631395       301.110417903     -1250.863290179     -1246.909053489        12.717294388
        99           99.000000         3.800880783       296.680704737     -1250.777380900     -1246.878546742        12.763726907
       100          100.000000         3.839029447       299.658428354     -1250.769021841     -1246.830705560        12.721060818
       101          101.000000         4.115555929       321.242917932     -1251.114950736     -1246.898719786        12.706313768
       102          102.000000         3.844974192       300.122450024     -1250.773674256     -1246.826600023        12.739019537
       103          103.000000         3.706656734       289.325973290     -1250.610750243     -1246.800643889        12.044158069
       104          104.000000         3.931254109       306.857096085     -1250.921847930     -1246.885803859        12.079356484
       105          105.000000         3.918406912       305.854298135     -1250.853358552     -1246.828778948        12.741841713
       106          106.000000         4.008500665       312.886636029     -1250.946222474     -1246.830141727        12.684753109
       107          107.000000         3.827422913       298.752471282     -1250.751990106     -1246.815576643        12.703478051
       108          108.000000         3.709225720       289.526497513     -1250.590451224     -1246.770887284        12.680287952
       109          109.000000         4.075964946       318.152612983     -1251.064889362     -1246.877216934        12.727899490
       110          110.000000         3.980993409       310.739535800     -1250.923859692     -1246.829713695        12.703310622
       111          111.000000         3.817573429       297.983662163     -1250.744664972     -1246.812522634        12.698133510
       112          112.000000         3.828725156       298.854118943     -1250.758120785     -1246.813447700        12.805604408
       113          113.000000         3.773019904       294.506002143     -1250.667305630     -1246.776980382        12.729646262
       114          114.000000         4.069312339       317.633338556     -1251.044072884     -1246.856069715        12.716363911
       115          115.000000         3.970438515       309.915665309     -1250.964603925     -1246.874027593        12.701877506
       116          116.000000         3.691445254       288.138629403     -1250.634855955     -1246.821883052        12.710896594
       117          117.000000         3.922012113       306.135704836     -1250.965995161     -1246.921102433        12.071650159
       118          118.000000         3.940345906       307.566763367     -1250.961238928     -1246.896615319        12.668247899
       119          119.000000         3.967430109       309.680841839     -1250.993174766     -1246.900052978        12.689053783
       120          120.000000         3.900887569       304.486812148     -1250.964222514     -1246.936225113        12.729472611
       121          121.000000         3.652546624       285.102366650     -1250.616569740     -1246.835556498        12.715359699
       122          122.000000         3.976280204       310.371642880     -1251.054584106     -1246.948502951        12.668479031
       123          123.000000         4.046921947       315.885639099     -1251.112869708     -1246.934734852        12.747684067
       124          124.000000         3.791885580       295.978577191     -1250.813549708     -1246.889051546        12.687975036
       125          125.000000         3.829524707       298.916528476     -1250.911506488     -1246.948024289        12.700262297
       126          126.000000         3.758042335       293.336916336     -1250.741514825     -1246.848194507        12.710748656
       127          127.000000         3.970093620       309.888744286     -1250.989246395     -1246.882553437        12.684022348
       128          128.000000         4.040191535       315.360291563     -1251.151413126     -1246.973244037        12.712368585
       129          129.000000         3.672991981       286.698244849     -1250.572708922     -1246.760397853        12.705731152
       130          130.000000         3.857074953       301.066984355     -1250.815520362     -1246.817850895        12.697300682
       131          131.000000         4.022824513       314.004695130     -1250.974163334     -1246.809421823        12.706603605
       132          132.000000         3.981859251       310.807119778     -1250.912593333     -1246.787457087        12.723676860
       133          133.000000         3.995992774       311.910322875     -1250.990865003     -1246.850225459        12.704145765
       134          134.000000         3.699643794       288.778572827     -1250.562368152     -1246.716749152        12.714775139
       135          135.000000         3.888967552       303.556385998     -1250.728065480     -1246.691845217        12.770693338
       136          136.000000         4.165751182       325.160947408     -1251.063920777     -1246.749565503        12.715800619
       137          137.000000         3.906381993       304.915683699     -1250.679072004     -1246.622695803        12.733040228
       138          138.000000         3.923752134       306.271523540     -1250.773251117     -1246.698153832        12.729903374
       139          139.000000         3.910973750       305.274096877     -1250.730173401     -1246.666505067        12.732236085
       140          140.000000         3.997612744       312.036770894     -1250.821382556     -1246.669715032        12.692969570
       141          141.000000         4.198643249       327.728363255     -1251.104920573     -1246.750796312        12.739644045
       142          142.000000         3.817582313       297.984355606     -1250.628969632     -1246.654472867        12.782686703
       143          143.000000         3.800558532       296.655551140     -1250.663524395     -1246.704704673        12.066407524
       144          144.000000         4.058614450       316.798306491     -1250.944913728     -1246.726670775        12.729812713
       145          145.000000         3.985064484       311.057306711     -1250.822495842     -1246.676388220        12.762414502
       146          146.000000         4.048839255       316.035296022     -1250.971550517     -1246.760243695        12.697622621
       147          147.000000         3.825181783       298.577538155     -1250.733021746     -1246.743963554        12.757826811
       148          148.000000         3.801418407       296.722669414     -1250.679044688     -1246.712405590        12.724001655
       149          149.000000         4.153796410       324.227808364     -1251.166948986     -1246.846551170        12.732640048
       150          150.000000         3.917910724       305.815567798     -1250.849360834     -1246.763421611        12.786244513
       151          151.000000         3.792940338       296.060907152     -1250.711519428     -1246.749192369        12.070227502
       152          152.000000         3.847724897       300.337158461     -1250.810992826     -1246.792563912        12.731582977
       153          153.000000         3.832576429       299.154732987     -1250.753928698     -1246.749347854        12.702930862
       154          154.000000         4.104349877       320.368220821     -1251.131929706     -1246.854250026        12.072310383
       155          155.000000         3.860116423       301.304388667     -1250.853930144     -1246.819137402        12.714239446
       156          156.000000         3.638782838       284.028023601     -1250.625794635     -1246.811086618        12.708775466
       157          157.000000         3.945407003       307.961811178     -1251.061889092     -1246.939344807        12.755602516
       158          158.000000         3.916081686       305.672800808     -1250.923791173     -1246.829326674        12.717546195
       159          159.000000         3.944571005       307.896556706     -1250.952549279     -1246.828357414        12.744291058
       160          160.000000         3.857578787       301.106311486     -1250.898751374     -1246.860328934        12.736997010
       161          161.000000         3.694132076       288.348351398     -1250.624367137     -1246.748229752        12.742351506
       162          162.000000         4.091418717       319.358869073     -1251.076933827     -1246.802351815        12.696060928
       163          163.000000         4.039654487       315.318371810     -1251.023926426     -1246.799882803        12.754546192
       164          164.000000         3.798971619       296.531683415     -1250.719182844     -1246.734629045        12.712528918
       165          165.000000         3.912856015       305.421018503     -1250.903999323     -1246.804411250        12.707666164
       166          166.000000         3.860411279       301.327403907     -1250.765306763     -1246.717018140        12.699942837
       167          167.000000         4.089451920       319.205349211     -1251.056612703     -1246.778125482        12.688436162
       168          168.000000         4.051604875       316.251168672     -1251.027550696     -1246.785704711        12.686785053
       169          169.000000         3.698620582       288.698705244     -1250.561672314     -1246.671652831        12.705428787
       170          170.000000         3.951869501       308.466246540     -1250.908749964     -1246.764376749        12.712983994
       171          171.000000         4.009557249       312.969108565     -1250.900453808     -1246.697249982        12.719763080
       172          172.000000         3.924450395       306.326026865     -1250.761986385     -1246.642744507        12.731645878
       173          173.000000         3.940528346       307.581003863     -1250.849704236     -1246.713254866        12.078375196
       174          174.000000         3.716191793       290.070239781     -1250.551248089     -1246.638045997        12.691223888
       175          175.000000         3.997497319       312.027761288     -1250.922483252     -1246.726915134        12.677634936
       176          176.000000         4.130994877       322.448017028     -1251.076194967     -1246.746007376        12.706411529
       177          177.000000         3.799681331       296.587080591     -1250.675673631     -1246.675682219        12.717270525
       178          178.000000         3.883226354       303.108252295     -1250.854788448     -1246.770191819        12.705945117
       179          179.000000         3.869272159       302.019046764     -1250.828017125     -1246.756322860        12.726657670
       180          180.000000         3.978894374       310.575694017     -1250.858923115     -1246.676557009        12.729197327
       181          181.000000         4.117501165       321.394754829     -1251.081138399     -1246.759077500        12.696084527
       182          182.000000         3.739452019       291.885834810     -1250.590096517     -1246.645010030        12.744736461
       183          183.000000         3.863745876       301.587688440     -1250.730960935     -1246.660571946        12.063238358
       184          184.000000         4.068973724       317.606907687     -1251.019005882     -1246.742353630        12.757993991
       185          185.000000         3.909272788       305.141326977     -1250.787129305     -1246.669122861        12.711686553
       186          186.000000         3.952337188       308.502752172     -1250.910679181     -1246.748573265        12.694619779
       187          187.000000         3.733474619       291.419264226     -1250.611305970     -1246.667057950        12.050550722
       188          188.000000         3.820105889       298.181335335     -1250.702086737     -1246.670256162        12.746767366
       189          189.000000         4.128207192       322.230422116     -1251.097650824     -1246.756738962        12.081670381
       190          190.000000         3.831415845       299.064142749     -1250.712175377     -1246.667052398        12.715534048
       191          191.000000         3.816993989       297.938433511     -1250.735370013     -1246.703722221        12.699373392
       192          192.000000         3.893736918       303.928662555     -1250.836239868     -1246.726918713        12.734579911
       193          193.000000         3.869199499       302.013375256     -1250.728627849     -1246.642920250        12.739378773
       194          194.000000         4.092161554       319.416851765     -1251.040611086     -1246.731002844        12.694810620
       195          195.000000         3.815646003       297.833215461     -1250.682216566     -1246.648173935        12.754614176
       196          196.000000         3.755830391       293.164261317     -1250.612694524     -1246.637577655        12.071213948
       197          197.000000         4.072390938       317.873640954     -1251.014463602     -1246.721894072        12.756143032
       198          198.000000         3.931337114       306.863575051     -1250.769310200     -1246.616866359        12.712129980
       199          199.000000         3.952670491       308.528768378     -1250.805423151     -1246.630728988        12.753732702
       200          200.000000         3.865255871       301.705552270     -1250.714357408     -1246.626168418        12.718399163
       201          201.000000         3.781905480       295.199572703     -1250.563099239     -1246.557385163        12.816165373
       202          202.000000         4.129624611       322.341059842     -1251.050871675     -1246.696552948        12.737095453
       203          203.000000         3.935784176       307.210693928     -1250.784996184     -1246.623588411        12.753596887
       204          204.000000         3.792257193       296.007583742     -1250.611792009     -1246.593018950        12.764908735
       205          205.000000         3.989729282       311.421421151     -1250.915440099     -1246.698316367        12.730154946
       206          206.000000         3.923794560       306.274835144     -1250.780161034     -1246.628073245        13.348865276
       207          207.000000         4.098826165       319.937063185     -1251.016391605     -1246.688356091        13.425369591
       208          208.000000         3.970156724       309.893669933     -1250.882671171     -1246.682356691        13.363985024
       209          209.000000         3.740890809       291.998140641     -1250.566613579     -1246.594653436        13.391013552
       210          210.000000         4.102057460       320.189284386     -1251.054273645     -1246.720243390        12.747376643
       211          211.000000         4.081220774       318.562860659     -1250.984734875     -1246.670572025        12.707312360
       212          212.000000         3.997350111       312.016270888     -1250.950858481     -1246.719579592        13.369033417
       213          213.000000         4.012333017       313.185773250     -1251.009876580     -1246.762620321        13.385133270
       214          214.000000         3.819643917       298.145275751     -1250.736927861     -1246.681377369        13.346842056
       215          215.000000         4.095667728       319.690528921     -1251.110675517     -1246.778118389        13.356248373
       216          216.000000         4.065209797       317.313111426     -1251.103309903     -1246.800170693        12.727393305
       217          217.000000         3.760068592       293.495077459     -1250.734051504     -1246.735036216        13.338866228
       218          218.000000         3.949646226       308.292707018     -1250.983195435     -1246.793622378        13.389089977
       219          219.000000         3.921488325       306.094820169     -1250.893244160     -1246.730829674        13.351776011
       220          220.000000         3.994705801       311.809867196     -1250.974998517     -1246.738360315        12.696176669
       221          221.000000         4.013672243       313.290307620     -1251.058782232     -1246.802147153        12.754570743
       222          222.000000         3.656045428       285.375468510     -1250.593633011     -1246.693630024        12.703938384
       223          223.000000         3.874549040       302.430937786     -1250.896839244     -1246.777395133        13.355582258
       224          224.000000         3.987691869       311.262389312     -1251.026971062     -1246.793417534        12.760168074
       225          225.000000         3.810754244       297.451385404     -1250.759139447     -1246.701558668        12.716459338
       226          226.000000         3.910073862       305.203855389     -1250.938265938     -1246.780425331        12.734145379
       227          227.000000         3.754601953       293.068374685     -1250.699107789     -1246.695813533        12.733689338