#     Step Nr.          Time[fs]        Kin.[a.u.]          Temp[K]            Pot.[a.u.]        Cons Qty[a.u.]        UsedTime[s]
     10730        10730.000000         3.834499324       299.193890305     -1262.823157489     -1227.033495944        10.425339900
     10731        10731.000000         3.804257147       296.834188557     -1262.804563082     -1227.041237360        10.418409787
     10732        10732.000000         3.776208141       294.645613090     -1262.787636649     -1227.048497555        10.427271768
     10733        10733.000000         3.754152531       292.924683382     -1262.763644116     -1227.042743192        10.436946064
     10734        10734.000000         3.728950214       290.958226074     -1262.746594195     -1227.047125809        10.467691384
     10735        10735.000000         3.711198972       289.573152653     -1262.736856546     -1227.051419347        10.460767306
     10736        10736.000000         3.708745574       289.381721750     -1262.748604222     -1227.061941592        10.490938604
     10737        10737.000000         3.692707284       288.130304498     -1262.732726827     -1227.058464869        10.426912300
     10738        10738.000000         3.675498414       286.787550645     -1262.716999216     -1227.056359389        10.428982459
     10739        10739.000000         3.655807865       285.251159185     -1262.706174214     -1227.061693677        10.427534521
     10740        10740.000000         3.641596887       284.142321432     -1262.689390140     -1227.055646391        10.436742112
     10741        10741.000000         3.647663077       284.615647118     -1262.691030707     -1227.047793337        10.430110507
     10742        10742.000000         3.663889530       285.881746063     -1262.700202934     -1227.037343105        10.430489965
     10743        10743.000000         3.679584698       287.106390548     -1262.692490369     -1227.010563597        10.529278301
     10744        10744.000000         3.694537970       288.273147201     -1262.706259042     -1227.006029208        10.513481185
     10745        10745.000000         3.707378974       289.275090249     -1262.693852679     -1226.977452629        10.462254137
     10746        10746.000000         3.714918645       289.863386969     -1262.697610779     -1226.970363439        10.448428951
     10747        10747.000000         3.717434257       290.059672286     -1262.694020532     -1226.960974701        10.462578252
     10748        10748.000000         3.712809383       289.698807952     -1262.689862126     -1226.958187889        10.439072095
     10749        10749.000000         3.717473811       290.062758545     -1262.691104132     -1226.951541241        10.449128702
     10750        10750.000000         3.738370654       291.693273290     -1262.712427283     -1226.948760229        10.442784645
     10751        10751.000000         3.751451289       292.713914016     -1262.723916975     -1226.943971872        10.480275542
     10752        10752.000000         3.749642193       292.572755905     -1262.719965036     -1226.938648898        10.487352438
     10753        10753.000000         3.743934699       292.127418201     -1262.704151370     -1226.925387865         9.877649404
     10754        10754.000000         3.746452442       292.323869710     -1262.706351477     -1226.921939537         9.839781940
     10755        10755.000000         3.754465301       292.949087828     -1262.726334177     -1226.930796639        10.426643237
     10756        10756.000000         3.754764473       292.972431318     -1262.729244244     -1226.930312402        10.439004384
     10757        10757.000000         3.743464125       292.090700730     -1262.712343488     -1226.921642388        10.422357798
     10758        10758.000000         3.731020698       291.119779390     -1262.701556445     -1226.920261691        10.429831959
     10759        10759.000000         3.735814752       291.493844298     -1262.731046460     -1226.941948374        10.413424559
     10760        10760.000000         3.733474470       291.311239511     -1262.710795990     -1226.921052189        10.455581464
     10761        10761.000000         3.714261468       289.812109571     -1262.695839077     -1226.922355705        10.432623670
     10762        10762.000000         3.704937806       289.084613594     -1262.689919890     -1226.922846640        10.460104607
     10763        10763.000000         3.705763456       289.149036449     -1262.700453714     -1226.929674013        10.417048343
     10764        10764.000000         3.702744690       288.913491641     -1262.711635155     -1226.941023744        10.431775294
     10765        10765.000000         3.690079311       287.925252113     -1262.706302183     -1226.945541753        10.439661466
     10766        10766.000000         3.678756419       287.041762508     -1262.692927489     -1226.940716722        10.426329501
     10767        10767.000000         3.679434294       287.094654962     -1262.699820548     -1226.944196509        10.448571503
     10768        10768.000000         3.677435204       286.938672257     -1262.707457447     -1226.951131534        11.030337222
     10769        10769.000000         3.675839215       286.814142330     -1262.717122539     -1226.959727117        11.048096702
     10770        10770.000000         3.674106593       286.678951232     -1262.705784794     -1226.947492069        10.437065676
     10771        10771.000000         3.680838139       287.204192574     -1262.718240657     -1226.950619112        11.062826373
     10772        10772.000000         3.698744254       288.601350238     -1262.748391104     -1226.960290587        11.060487106
     10773        10773.000000         3.716482468       289.985407186     -1262.770227257     -1226.961833251        11.032604940
     10774        10774.000000         3.714371515       289.820696179     -1262.769138971     -1226.960322295        11.077084430
     10775        10775.000000         3.698859633       288.610352938     -1262.772748691     -1226.976943451        11.027020462
     10776        10776.000000         3.695975690       288.385327930     -1262.772768515     -1226.977382400        11.043439329
     10777        10777.000000         3.706839641       289.233007774     -1262.774423027     -1226.965735406        11.070579052
     10778        10778.000000         3.711337551       289.583965540     -1262.764599957     -1226.949000106        10.447649412
     10779        10779.000000         3.712233541       289.653876815     -1262.791207662     -1226.972323072        11.052670866
     10780        10780.000000         3.726727488       290.784793748     -1262.799976881     -1226.964231399        11.036872797
     10781        10781.000000         3.749995950       292.600358478     -1262.827445093     -1226.966076317        11.116778314
     10782        10782.000000         3.763974115       293.691030637     -1262.853161612     -1226.975468196        11.024286017
     10783        10783.000000         3.756833381       293.133861652     -1262.835139978     -1226.962256307        11.059760556
     10784        10784.000000         3.737435354       291.620294748     -1262.814988445     -1226.959198741        11.067306079
     10785        10785.000000         3.724877941       290.640479409     -1262.795862380     -1226.950357757        10.434491396
     10786        10786.000000         3.724795795       290.634069813     -1262.787273059     -1226.939606231        10.438614048
     10787        10787.000000         3.724875534       290.640291633     -1262.791659397     -1226.941692874        10.466612786
     10788        10788.000000         3.718218272       290.120846447     -1262.786273036     -1226.940770261        10.425354682
     10789        10789.000000         3.712007730       289.636257440     -1262.800371164     -1226.958914726        10.432549700
     10790        10790.000000         3.706788731       289.229035445     -1262.803284356     -1226.964912664        10.469097115
     10791        10791.000000         3.699434681       288.655222127     -1262.808710822     -1226.975590159        10.425991759
     10792        10792.000000         3.692566073       288.119286275     -1262.811441048     -1226.983118883        10.471439727
     10793        10793.000000         3.682302934       287.318485938     -1262.800102131     -1226.980007964        10.460686296
     10794        10794.000000         3.673510218       286.632417977     -1262.801101920     -1226.987802491        11.013379499
     10795        10795.000000         3.670929719       286.431069788     -1262.798215444     -1226.985535004        10.425094791
     10796        10796.000000         3.659496228       285.538950517     -1262.795087247     -1226.991916640        11.013690718
     10797        10797.000000         3.644260624       284.350164399     -1262.781367990     -1226.991552322        10.420798004
     10798        10798.000000         3.633861146       283.538725976     -1262.790353290     -1227.009101553        10.996903509
     10799        10799.000000         3.631804670       283.378265604     -1262.808270939     -1227.027283566        11.047335997
     10800        10800.000000         3.634546072       283.592168600     -1262.795274603     -1227.009794267        10.431679264
     10801        10801.000000         3.632597393       283.440119280     -1262.796425217     -1227.011182182        11.044963010
     10802        10802.000000         3.629965200       283.234737583     -1262.774596402     -1226.990315847        10.430746533
     10803        10803.000000         3.634740169       283.607313346     -1262.752117287     -1226.961432433        10.435345054
     10804        10804.000000         3.642636772       284.223460352     -1262.773090248     -1226.972916720        10.432656772
     10805        10805.000000         3.642449729       284.208866000     -1262.764006673     -1226.962465293        10.508638225
     10806        10806.000000         3.631239447       283.334163064     -1262.736373026     -1226.944528335        10.441393554
     10807        10807.000000         3.625166204       282.860287038     -1262.719329500     -1226.932088560        10.436420940
     10808        10808.000000         3.633108375       283.479989571     -1262.727267463     -1226.930655914        10.431833431
     10809        10809.000000         3.647906265       284.634622315     -1262.738493081     -1226.925690918        10.433711208
     10810        10810.000000         3.664554580       285.933637836     -1262.755226456     -1226.924414871        10.464365542
     10811        10811.000000         3.680985616       287.215699745     -1262.736233884     -1226.887658646        10.447008766
     10812        10812.000000         3.699814437       288.684853225     -1262.750316924     -1226.881605427        10.420133680
     10813        10813.000000         3.716693963       290.001909428     -1262.768313440     -1226.881436834        10.438113503
     10814        10814.000000         3.718438749       290.138049633     -1262.786033286     -1226.896148365        11.014455341
     10815        10815.000000         3.712893195       289.705347495     -1262.771406386     -1226.885828874        11.061679423
     10816        10816.000000         3.707775140       289.306001822     -1262.741605819     -1226.859935573        10.444684513
     10817        10817.000000         3.710636387       289.529255869     -1262.736208495     -1226.850492953        10.428691752
     10818        10818.000000         3.719157025       290.194094411     -1262.741895430     -1226.846499287        10.435180783
     10819        10819.000000         3.723099545       290.501716786     -1262.735080871     -1226.834604825        10.452759184
     10820        10820.000000         3.718890880       290.173327918     -1262.731195014     -1226.833814126        10.436939165
     10821        10821.000000         3.722025020       290.417875028     -1262.715026803     -1226.813422704         9.854556583
     10822        10822.000000         3.731418491       291.150817935     -1262.743532616     -1226.831467867        10.499081835
     10823        10823.000000         3.735021046       291.431913927     -1262.767472270     -1226.850758145        10.450270928
     10824        10824.000000         3.724578999       290.617153970     -1262.771627362     -1226.864331107        10.455243096
     10825        10825.000000         3.694946048       288.304988208     -1262.756088011     -1226.877429728        10.476268165
     10826        10826.000000         3.665198810       285.983905074     -1262.735053019     -1226.885183684         9.854733646
     10827        10827.000000         3.648978452       284.718281672     -1262.745222385     -1226.910654995         9.860465229
     10828        10828.000000         3.644541048       284.372045033     -1262.751327922     -1226.920319027         9.883518457
     10829        10829.000000         3.639344696       283.966590068     -1262.754235507     -1226.927583192        10.468304910
     10830        10830.000000         3.621098967       282.542933385     -1262.746814847     -1226.937610290         9.882301971
     10831        10831.000000         3.600755460       280.955593698     -1262.710804572     -1226.921191862         9.889853127
     10832        10832.000000         3.602123539       281.062340532     -1262.717014955     -1226.925329725        10.465999812
     10833        10833.000000         3.610879801       281.745564105     -1262.731866131     -1226.930764568        10.508453384
     10834        10834.000000         3.600784964       280.957895808     -1262.717646904     -1226.926024509        10.474896848
     10835        10835.000000         3.578548041       279.222818808     -1262.686940446     -1226.916987881         9.920592658
     10836        10836.000000         3.569575668       278.522732796     -1262.672347877     -1226.910852256         9.886766344
     10837        10837.000000         3.581594882       279.460554159     -1262.705053039     -1226.931073277        10.479928486
     10838        10838.000000         3.592751601       280.331077759     -1262.718780396     -1226.933226597        10.515774935
     10839        10839.000000         3.591382666       280.224264092     -1262.712673802     -1226.928118400        10.506200701
     10840        10840.000000         3.591751524       280.253044956     -1262.704269418     -1226.919021964        10.504372977
     10841        10841.000000         3.613701813       281.965756798     -1262.717355773     -1226.909880770        10.530646674
     10842        10842.000000         3.658197161       285.437588439     -1262.752423259     -1226.900216280        10.517097339
     10843        10843.000000         3.685618644       287.577200309     -1262.769933639     -1226.890102219        10.533147179
     10844        10844.000000         3.681250052       287.236332872     -1262.753957456     -1226.878322250        10.499852389
     10845        10845.000000         3.676090817       286.833774011     -1262.741086128     -1226.870469311        10.560056210
     10846        10846.000000         3.679044194       287.064216737     -1262.735548334     -1226.861869421         9.938666366
     10847        10847.000000         3.677886967       286.973921943     -1262.736012313     -1226.863413691        10.558043301
     10848        10848.000000         3.665147592       285.979908672     -1262.721879981     -1226.861976085        10.512937710
     10849        10849.000000         3.652638015       285.003825854     -1262.707858413     -1226.860453790        10.527912833
     10850        10850.000000         3.660077346       285.584293365     -1262.712172749     -1226.857354603         9.937388301
     10851        10851.000000         3.687584203       287.730566685     -1262.740264101     -1226.857999881         9.949539222
     10852        10852.000000         3.708920170       289.395344906     -1262.779329769     -1226.875821165        10.560584366
     10853        10853.000000         3.708465111       289.359838055     -1262.784771114     -1226.881836143        10.559441075
     10854        10854.000000         3.694893415       288.300881467     -1262.772902532     -1226.883684178        10.564061895
     10855        10855.000000         3.684108117       287.459338615     -1262.773606172     -1226.895346286        10.570339419
     10856        10856.000000         3.675041230       286.751878061     -1262.774263844     -1226.905274283        10.595546126
     10857        10857.000000         3.659789122       285.561804147     -1262.772524845     -1226.919022709        10.551590592
     10858        10858.000000         3.654657257       285.161380882     -1262.762955363     -1226.914854744        10.618660137
     10859        10859.000000         3.667015888       286.125685881     -1262.784520707     -1226.924367217        10.572055317
     10860        10860.000000         3.690417756       287.951659901     -1262.821511773     -1226.938297463        10.578082830
     10861        10861.000000         3.699674469       288.673931966     -1262.817025121     -1226.924926688        10.629254825
     10862        10862.000000         3.689603753       287.888145805     -1262.810527606     -1226.928900806        10.596063919
     10863        10863.000000         3.675405000       286.780261850     -1262.798876630     -1226.931878037        10.604907945
     10864        10864.000000         3.662850006       285.800635261     -1262.790747875     -1226.936764494        10.007715844
     10865        10865.000000         3.646104817       284.494060977     -1262.789292842     -1226.952547745        10.610246398
     10866        10866.000000         3.635918930       283.699288381     -1262.778012396     -1226.951981980        11.234688833
     10867        10867.000000         3.633818696       283.535413732     -1262.757240548     -1226.933877614         9.976152375
     10868        10868.000000         3.640631614       284.067004234     -1262.749583982     -1226.920015497        10.575657815
     10869        10869.000000         3.652419309       284.986760915     -1262.759600657     -1226.918892041        10.594057947
     10870        10870.000000         3.664098872       285.898080323     -1262.764997891     -1226.913295998        10.028019227
     10871        10871.000000         3.675683041       286.801956514     -1262.772587310     -1226.910024236         9.986870877
     10872        10872.000000         3.690327987       287.944655475     -1262.786832161     -1226.910382061         9.999444962
     10873        10873.000000         3.703398089       288.964474338     -1262.793560820     -1226.904831148         9.973470412
     10874        10874.000000         3.705084875       289.096088957     -1262.774861322     -1226.885264492         9.993768729
     10875        10875.000000         3.691747875       288.055444885     -1262.754296311     -1226.878882056        10.575203188
     10876        10876.000000         3.683052687       287.376986799     -1262.755721729     -1226.889874970        10.605612360
     10877        10877.000000         3.687280390       287.706861107     -1262.752744517     -1226.883572543        10.580352627
     10878        10878.000000         3.687514327       287.725114445     -1262.768091983     -1226.899619404        10.633314118
     10879        10879.000000         3.685133855       287.539373730     -1262.740841675     -1226.875712833        10.600276448
     10880        10880.000000         3.696391607       288.417780620     -1262.748083708     -1226.872691857        10.596634306
     10881        10881.000000         3.727609284       290.853597554     -1262.795750959     -1226.890170057        10.598087460
     10882        10882.000000         3.752091724       292.763885082     -1262.822509330     -1226.893505247        10.601814561
     10883        10883.000000         3.739217288       291.759333506     -1262.806625769     -1226.891575926        10.012613997
     10884        10884.000000         3.708029076       289.325815624     -1262.767544301     -1226.884776951         9.981868148
     10885        10885.000000         3.690494679       287.957661945     -1262.734466199     -1226.870346304         9.998316832
     10886        10886.000000         3.689259796       287.861307917     -1262.741572444     -1226.879826842        10.010710575
     10887        10887.000000         3.691873643       288.065258110     -1262.744781452     -1226.881591319        10.637571774
     10888        10888.000000         3.679083979       287.067320998     -1262.717881759     -1226.868678574        10.596802443
     10889        10889.000000         3.670794162       286.420492751     -1262.709967519     -1226.870279485        10.003703050
     10890        10890.000000         3.701016372       288.778636471     -1262.745268131     -1226.876619241         9.980861396
     10891        10891.000000         3.737751473       291.644960533     -1262.786735107     -1226.882651454        10.026278727
     10892        10892.000000         3.740173278       291.833926350     -1262.798059266     -1226.892882471        10.008206226
     10893        10893.000000         3.721686419       290.391455036     -1262.780666607     -1226.895323118        10.625031658
     10894        10894.000000         3.707740413       289.303292189     -1262.790626016     -1226.920592640        10.671397828
     10895        10895.000000         3.719322886       290.207036000     -1262.800985420     -1226.920758940        10.607510805
     10896        10896.000000         3.741216398       291.915317734     -1262.809198317     -1226.908497863        10.024968840
     10897        10897.000000         3.751038374       292.681695544     -1262.810133698     -1226.901057095        10.054202721
     10898        10898.000000         3.759643382       293.353117139     -1262.793914102     -1226.877699991        10.024656445
     10899        10899.000000         3.785821751       295.395732782     -1262.814976953     -1226.874074815        10.660896607
     10900        10900.000000         3.815472401       297.709279442     -1262.830075208     -1226.861035108        10.627701834
     10901        10901.000000         3.827524769       298.649687707     -1262.848040578     -1226.868475094        10.030656897
     10902        10902.000000         3.829526583       298.805882980     -1262.840205291     -1226.860171205        10.013587676
     10903        10903.000000         3.837925562       299.461228815     -1262.841387035     -1226.854491881        10.005791284
     10904        10904.000000         3.843508940       299.896882183     -1262.834138043     -1226.843201395        10.042024255
     10905        10905.000000         3.842241467       299.797985309     -1262.805371954     -1226.817245684         9.992748365
     10906        10906.000000         3.839988036       299.622157184     -1262.795908473     -1226.811578091        10.039070360
     10907        10907.000000         3.837569053       299.433411558     -1262.784335862     -1226.803966672        10.644063376
     10908        10908.000000         3.839503046       299.584314948     -1262.781346229     -1226.800586216        10.637682848
     10909        10909.000000         3.835629954       299.282109730     -1262.769271327     -1226.793928112        10.009460814
     10910        10910.000000         3.821085987       298.147289884     -1262.755904150     -1226.796646717        10.038782492
     10911        10911.000000         3.819609524       298.032086152     -1262.758201012     -1226.801962741        10.655068122
     10912        10912.000000         3.836390867       299.341481426     -1262.779109511     -1226.807639968        10.638828345
     10913        10913.000000         3.840290694       299.645772620     -1262.783376134     -1226.809562738        10.016440153
     10914        10914.000000         3.810751762       297.340942914     -1262.734275686     -1226.791553439        10.050647542
     10915        10915.000000         3.777065921       294.712542933     -1262.708103485     -1226.800613000        10.018771641
     10916        10916.000000         3.763408926       293.646930714     -1262.699120878     -1226.806836172        10.025634728
     10917        10917.000000         3.759114422       293.311844123     -1262.701344532     -1226.814914828        10.048728317
     10918        10918.000000         3.739725448       291.798983623     -1262.702266202     -1226.836797824        10.037757836
     10919        10919.000000         3.715726878       289.926450837     -1262.674575787     -1226.834689396        10.677611411
     10920        10920.000000         3.713203634       289.729570103     -1262.674979981     -1226.839218722        10.015623234
     10921        10921.000000         3.733840391       291.339791133     -1262.702922258     -1226.848154631        10.051709987
     10922        10922.000000         3.747966613       292.442015721     -1262.728023456     -1226.860788975        10.037197173
     10923        10923.000000         3.724060100       290.576665893     -1262.703994524     -1226.862343083        10.679890461
     10924        10924.000000         3.689931289       287.913702398     -1262.680527795     -1226.874691778        10.660348050
     10925        10925.000000         3.694039756       288.234273087     -1262.715299672     -1226.907063401        10.700395562
     10926        10926.000000         3.721735881       290.395314386     -1262.735686598     -1226.901497847        10.682116665
     10927        10927.000000         3.729270586       290.983223692     -1262.746082041     -1226.906134350        10.694057748
     10928        10928.000000         3.721028325       290.340106068     -1262.736227390     -1226.906319805        10.666618131
     10929        10929.000000         3.727097026       290.813627665     -1262.742954151     -1226.908798294        10.688206248
     10930        10930.000000         3.755844627       293.056712261     -1262.760256335     -1226.899203626        10.045623928
     10931        10931.000000         3.783688417       295.229275402     -1262.785367758     -1226.898352877        10.068427131
     10932        10932.000000         3.794500496       296.072907883     -1262.792982461     -1226.897058613        10.020419925
     10933        10933.000000         3.795485394       296.149756351     -1262.786698254     -1226.891705125        10.633805625
     10934        10934.000000         3.802591468       296.704220867     -1262.754764176     -1226.854591592        10.659890130
     10935        10935.000000         3.832199143       299.014414364     -1262.760644212     -1226.832807055        10.637143463
     10936        10936.000000         3.854593964       300.761811680     -1262.777254919     -1226.828981307        10.630992554
     10937        10937.000000         3.845860475       300.080365018     -1262.757985506     -1226.820405382        10.657118417
     10938        10938.000000         3.828910316       298.757797602     -1262.735154793     -1226.816477616        10.643657349
     10939        10939.000000         3.830345979       298.869817872     -1262.727750578     -1226.809588622        10.624012910
     10940        10940.000000         3.850144742       300.414652879     -1262.751699355     -1226.815696690        10.626786262
     10941        10941.000000         3.871105100       302.050123497     -1262.783424277     -1226.828427920        10.619054087
     10942        10942.000000         3.877343424       302.536880258     -1262.771562560     -1226.812295873        10.647460170
     10943        10943.000000         3.875947389       302.427952039     -1262.767579036     -1226.811670571        10.617554151
     10944        10944.000000         3.878488820       302.626251949     -1262.768895008     -1226.812400547        10.659138061
     10945        10945.000000         3.881834346       302.887292772     -1262.787839336     -1226.829948796        10.613341890
     10946        10946.000000         3.878388680       302.618438351     -1262.799615290     -1226.847111893        10.634064615
     10947        10947.000000         3.868822586       301.872026162     -1262.778354681     -1226.837348354        10.670542486
     10948        10948.000000         3.861899488       301.331838635     -1262.775379058     -1226.843217172        10.636414088
     10949        10949.000000         3.865027086       301.575875271     -1262.788355431     -1226.854982038        10.663538963
     10950        10950.000000         3.876883250       302.500974394     -1262.801353883     -1226.858039224        10.670263521
     10951        10951.000000         3.890270506       303.545539701     -1262.806396547     -1226.851608644        10.635177784
     10952        10952.000000         3.890132494       303.534771096     -1262.807564337     -1226.854822264        10.050064050
     10953        10953.000000         3.871120323       302.051311350     -1262.786735436     -1226.854899396        10.055321462
     10954        10954.000000         3.858964225       301.102809375     -1262.782969113     -1226.865169379        10.647969283
     10955        10955.000000         3.861364180       301.290070258     -1262.787593471     -1226.869267834        10.674848117
     10956        10956.000000         3.869689158       301.939642022     -1262.799624462     -1226.874846452        10.639405988
     10957        10957.000000         3.862196507       301.355014145     -1262.793821954     -1226.878404234        10.666256323