#     Step Nr.          Time[fs]        Kin.[a.u.]          Temp[K]            Pot.[a.u.]    
         0            0.000000         3.843405441       300.000000000      -992.528306970   
         1            1.000000         3.905085564       304.814489939      -992.652497679   
         2            2.000000         3.723166681       290.614670057      -992.432154935   
         3            3.000000         3.683821925       287.543584557      -992.373848412   
         4            4.000000         3.912356428       305.382022889      -992.680145206   
         5            5.000000         3.807708662       297.213660143      -992.550848682   
         6            6.000000         3.798506541       296.495381442      -992.579895284   
         7            7.000000         3.826889740       298.710854056      -992.619464787   
         8            8.000000         3.803216926       296.863054173      -992.567371856   
         9            9.000000         3.970204338       309.897386435      -992.832242178   
        10           10.000000         3.791555793       295.952835392      -992.618926541   
        11           11.000000         3.663416052       285.950788301      -992.455398712   
        12           12.000000         3.853681736       300.802124150      -992.726588809   
        13           13.000000         3.854080409       300.833242930      -992.680879148   
        14           14.000000         3.917421415       305.777374355      -992.770188073   
        15           15.000000         3.847597365       300.327203892      -992.705779317   
        16           16.000000         3.709882517       289.577764299      -992.518243865   
        17           17.000000         3.913128025       305.442250494      -992.790511684   
        18           18.000000         3.844690568       300.100311543      -992.667092392   
        19           19.000000         3.702344473       288.989376461      -992.493451262   
        20           20.000000         3.768478725       294.151536881      -992.589743568   
        21           21.000000         3.751013480       292.788273613      -992.519603549   
        22           22.000000         3.933467513       307.029865062      -992.739740818   
        23           23.000000         3.894716218       304.005102526      -992.700096921   
        24           24.000000         3.667901056       286.300868730      -992.417275914   
        25           25.000000         3.805841566       297.067922487      -992.612356913   
        26           26.000000         3.821385987       298.281254335      -992.603882236   
        27           27.000000         3.803320543       296.871142080      -992.580405426   
        28           28.000000         3.812695273       297.602893944      -992.639400018   
        29           29.000000         3.683060698       287.484166370      -992.438578109   
        30           30.000000         3.890841625       303.702668204      -992.675173941   
        31           31.000000         3.975671093       310.324098254      -992.778524688   
        32           32.000000         3.767541221       294.078359312      -992.515680033   
        33           33.000000         3.774021183       294.584157730      -992.566522069   
        34           34.000000         3.733595200       291.428676223      -992.496878841   
        35           35.000000         3.830420142       298.986422391      -992.607268413   
        36           36.000000         3.909609178       305.167584102      -992.734088719   
        37           37.000000         3.672800951       286.683333887      -992.442574990   
        38           38.000000         3.753768982       293.003356459      -992.570071987   
        39           39.000000         3.861297119       301.396548803      -992.696729797   
        40           40.000000         3.785779053       295.501927474      -992.597263560   
        41           41.000000         3.796111541       296.308437844      -992.654008039   
        42           42.000000         3.641735301       284.258480420      -992.499052045   
        43           43.000000         3.734219494       291.477406007      -992.607154394   
        44           44.000000         3.937486651       307.343581961      -992.891290231   
        45           45.000000         3.766582244       294.003505607      -992.666365850   
        46           46.000000         3.737215789       291.711284094      -992.666313107   
        47           47.000000         3.742543486       292.127141690      -992.679168551   
        48           48.000000         3.749549091       292.673969630      -992.681797404   
        49           49.000000         3.885569646       303.291159805      -992.873103850   
        50           50.000000         3.703146193       289.051955336      -992.642656341   
        51           51.000000         3.688050064       287.873615236      -992.620505128   
        52           52.000000         3.880987473       302.933494659      -992.858191632   
        53           53.000000         3.825968207       298.638923095      -992.746595756   
        54           54.000000         3.841289914       299.834870869      -992.806260541   
        55           55.000000         3.734682389       291.513537631      -992.681582927   
        56           56.000000         3.696474661       288.531203727      -992.610469962   
        57           57.000000         3.917093526       305.751780702      -992.893175385   
        58           58.000000         3.812719800       297.604808382      -992.739553857   
        59           59.000000         3.745310309       292.343108165      -992.648760282   
        60           60.000000         3.838595629       299.624566340      -992.790368637   
        61           61.000000         3.829091166       298.882688136      -992.739807501   
        62           62.000000         3.959603697       309.069945199      -992.896386239   
        63           63.000000         3.846266761       300.223342491      -992.762805733   
        64           64.000000         3.700988360       288.883523984      -992.563094250   
        65           65.000000         3.890286259       303.659318699      -992.813991605   
        66           66.000000         3.873939036       302.383323436      -992.767370846   
        67           67.000000         3.855111046       300.913690106      -992.737824169   
        68           68.000000         3.838029686       299.580391234      -992.745950707   
        69           69.000000         3.740431720       291.962306083      -992.603282262   
        70           70.000000         3.935493435       307.187999932      -992.879479328   
        71           71.000000         3.897042532       304.186684795      -992.823541628   
        72           72.000000         3.718051298       290.215384860      -992.622120987   
        73           73.000000         3.797278828       296.399551335      -992.761123262   
        74           74.000000         3.777767669       294.876592636      -992.784958650   
        75           75.000000         3.856400721       301.014356631      -992.884158603   
        76           76.000000         3.839151484       299.667954047      -992.874374777   
        77           77.000000         3.631990190       283.497818208      -992.585999618   
        78           78.000000         3.768803387       294.176878609      -992.783951703   
        79           79.000000         3.816822478       297.925046116      -992.830527666   
        80           80.000000         3.728823698       291.056232962      -992.710104753   
        81           81.000000         3.748131684       292.563332755      -992.754017579   
        82           82.000000         3.653875973       285.206130018      -992.612248121   
        83           83.000000         3.796976024       296.375915694      -992.787894372   
        84           84.000000         3.871535556       302.195717941      -992.884070799   
        85           85.000000         3.660320378       285.709153055      -992.552934001   
        86           86.000000         3.702308025       288.986531467      -992.630893062   
        87           87.000000         3.730505284       291.187490465      -992.617895816   
        88           88.000000         3.768413495       294.146445349      -992.640718173   
        89           89.000000         3.847175168       300.294248937      -992.757910019   
        90           90.000000         3.674095557       286.784385335      -992.521267914   
        91           91.000000         3.767738786       294.093780366      -992.635855234   
        92           92.000000         3.927366464       306.553642865      -992.832032260   
        93           93.000000         3.816689100       297.914635201      -992.662340650   
        94           94.000000         3.809120423       297.323856213      -992.689750623   
        95           95.000000         3.712088316       289.749939713      -992.566725826   
        96           96.000000         3.756031303       293.179943708      -992.605541009   
        97           97.000000         3.932997554       306.993182013      -992.841459742   
        98           98.000000         3.765395354       293.910862014      -992.637888686   
        99           99.000000         3.744897935       292.310920008      -992.621634065   
       100          100.000000         3.824341954       298.511984703      -992.736327131   
       101          101.000000         3.800434146       296.645842133      -992.704479248   
       102          102.000000         3.867078545       301.847822524      -992.797235753   
       103          103.000000         3.694966633       288.413493390      -992.591038521   
       104          104.000000         3.646251268       284.610977742      -992.546792418   
       105          105.000000         3.840286394       299.756540361      -992.798526770   
       106          106.000000         3.779633927       295.022264853      -992.697826401   
       107          107.000000         3.768409061       294.146099182      -992.705347874   
       108          108.000000         3.738286193       291.794835361      -992.681188103   
       109          109.000000         3.705619965       289.245047485      -992.599174975   
       110          110.000000         3.902616877       304.621794675      -992.858741705   
       111          111.000000         3.806179438       297.094295386      -992.722674749   
       112          112.000000         3.704252717       289.138325900      -992.595263063   
       113          113.000000         3.832169157       299.122943110      -992.758168092   
       114          114.000000         3.827645094       298.769813870      -992.710708492   
       115          115.000000         3.918477934       305.859841798      -992.836305179   
       116          116.000000         3.857892899       301.130829779      -992.768149081   
       117          117.000000         3.723871240       290.669664947      -992.583347389   
       118          118.000000         3.906176134       304.899615212      -992.821488274   
       119          119.000000         3.905722991       304.864244773      -992.795677647   
       120          120.000000         3.844178928       300.060375116      -992.719597154   
       121          121.000000         3.858134176       301.149662828      -992.754929322   
       122          122.000000         3.769051313       294.196230732      -992.614915086   
       123          123.000000         3.906746664       304.944148367      -992.795083215   
       124          124.000000         3.887210714       303.419254622      -992.791066146   
       125          125.000000         3.700680902       288.859525136      -992.552589823   
       126          126.000000         3.789729326       295.810269075      -992.687662942   
       127          127.000000         3.789189593       295.768139825      -992.659203832   
       128          128.000000         3.820382839       298.202952907      -992.705552810   
       129          129.000000         3.831463180       299.067837482      -992.738724629   
       130          130.000000         3.663464718       285.954586945      -992.492065656   
       131          131.000000         3.784323802       295.388336696      -992.656274792   
       132          132.000000         3.837676446       299.552818825      -992.718600435   
       133          133.000000         3.717070697       290.138843280      -992.575845751   
       134          134.000000         3.748108098       292.561491730      -992.654315904   
       135          135.000000         3.694980558       288.414580357      -992.571766215   
       136          136.000000         3.785872928       295.509254945      -992.642173589   
       137          137.000000         3.859367461       301.245927865      -992.732811684   
       138          138.000000         3.661868119       285.829963151      -992.473637035   
       139          139.000000         3.713340312       289.847665185      -992.557759545   
       140          140.000000         3.788974683       295.751364839      -992.647188377   
       141          141.000000         3.792833143       296.052539904      -992.639234957   
       142          142.000000         3.867526185       301.882763409      -992.783151628   
       143          143.000000         3.720578264       290.412629139      -992.584681223   
       144          144.000000         3.778182569       294.908978005      -992.654592050   
       145          145.000000         3.935678640       307.202456262      -992.857575840   
       146          146.000000         3.813353994       297.654310929      -992.683211631   
       147          147.000000         3.804276909       296.945792008      -992.707407299   
       148          148.000000         3.764742130       293.859874099      -992.655447963   
       149          149.000000         3.784901346       295.433417312      -992.641740939   
       150          150.000000         3.941945327       307.691607388      -992.849569094   
       151          151.000000         3.807994999       297.236010365      -992.668878990   
       152          152.000000         3.779875361       295.041110157      -992.628233179   
       153          153.000000         3.877508312       302.661926057      -992.757420885   
       154          154.000000         3.842368287       299.919044101      -992.673683559   
       155          155.000000         3.913379768       305.461900494      -992.781472518   
       156          156.000000         3.816107322       297.869224096      -992.664130083   
       157          157.000000         3.771759028       294.407583524      -992.597133911   
       158          158.000000         3.950922102       308.392296561      -992.827095485   
       159          159.000000         3.880313477       302.880885423      -992.713997095   
       160          160.000000         3.859812436       301.280660697      -992.697806762   
       161          161.000000         3.891518826       303.755527635      -992.722295826   
       162          162.000000         3.864062205       301.612379731      -992.665034193   
       163          163.000000         4.021030581       313.864668383      -992.872534644   
       164          164.000000         3.946565553       308.052242722      -992.778467908   
       165          165.000000         3.824259505       298.505549060      -992.626477153   
       166          166.000000         3.935881737       307.218309183      -992.787925927   
       167          167.000000         3.903611071       304.699397258      -992.724558132   
       168          168.000000         3.926138387       306.457784401      -992.742322867   
       169          169.000000         3.898815507       304.325075755      -992.728190264   
       170          170.000000         3.801891067       296.759563227      -992.580507329   
       171          171.000000         3.992162441       311.611343266      -992.822042911   
       172          172.000000         4.000841329       312.288780648      -992.832713967   
       173          173.000000         3.898315838       304.286073729      -992.698130084   
       174          174.000000         3.908721129       305.098266804      -992.745314849   
       175          175.000000         3.822986735       298.406201999      -992.620484885   
       176          176.000000         3.935528047       307.190701589      -992.765173745   
       177          177.000000         3.951840378       308.463973296      -992.795285986   
       178          178.000000         3.789585391       295.799034113      -992.581622820   
       179          179.000000         3.888758259       303.540049459      -992.723312747   
       180          180.000000         3.915717351       305.644362299      -992.733220673   
       181          181.000000         3.921554779       306.100007294      -992.745155552   
       182          182.000000         3.946971083       308.083896665      -992.797424506   
       183          183.000000         3.778137109       294.905429609      -992.572971461   
       184          184.000000         3.851036937       300.595682350      -992.678584844   
       185          185.000000         3.930022016       306.760924109      -992.771890558   
       186          186.000000         3.824683705       298.538660281      -992.632466683   
       187          187.000000         3.856089581       300.990070358      -992.685427454   
       188          188.000000         3.779054879       294.977066845      -992.571087144   
       189          189.000000         3.797831250       296.442671092      -992.589119798   
       190          190.000000         3.883406810       303.122337959      -992.724875533   
       191          191.000000         3.730892250       291.217695380      -992.519105374   
       192          192.000000         3.777531553       294.858162404      -992.592207873   
       193          193.000000         3.843445211       300.003104269      -992.670529135   
       194          194.000000         3.804625237       296.972980980      -992.600135626   
       195          195.000000         3.882110710       303.021169872      -992.719262343   
       196          196.000000         3.771104054       294.356458959      -992.576934386   
       197          197.000000         3.772803398       294.489102576      -992.573825848   
       198          198.000000         3.906829811       304.950638457      -992.750943829   
       199          199.000000         3.807625143       297.207140988      -992.602208073   
       200          200.000000         3.842477330       299.927555519      -992.664195474   
       201          201.000000         3.859163348       301.229995651      -992.684468067   
       202          202.000000         3.846254593       300.222392734      -992.640848424   
       203          203.000000         3.986329742       311.156067432      -992.832555458   
       204          204.000000         3.874147507       302.399595812      -992.680086239   
       205          205.000000         3.839035606       299.658909084      -992.633988121   
       206          206.000000         3.944410247       307.884008636      -992.777048629   
       207          207.000000         3.892955928       303.867701791      -992.681987915   
       208          208.000000         3.955812244       308.774000402      -992.775546535   
       209          209.000000         3.900277356       304.439181515      -992.707229344   
       210          210.000000         3.826936687       298.714518538      -992.595438000   
       211          211.000000         3.973574420       310.160440797      -992.793104306   
       212          212.000000         3.909605023       305.167259796      -992.683784242   
       213          213.000000         3.867975311       301.917820249      -992.638624628   
       214          214.000000         3.908149158       305.053621122      -992.716136888   
       215          215.000000         3.851173407       300.606334607      -992.603655519   
       216          216.000000         3.991020726       311.522225775      -992.777123743   
       217          217.000000         3.974407119       310.225437765      -992.757779876   
       218          218.000000         3.866395689       301.794521660      -992.625858807   
       219          219.000000         3.975706212       310.326839552      -992.790204239   
       220          220.000000         3.936518538       307.268015145      -992.713743818   
       221          221.000000         3.957544042       308.909177236      -992.735297797   
       222          222.000000         3.975585055       310.317382532      -992.779903331   
       223          223.000000         3.859474674       301.254296419      -992.598703920   
       224          224.000000         3.989965920       311.439892124      -992.786948140   
       225          225.000000         4.007099177       312.777241842      -992.813359450   
       226          226.000000         3.922701047       306.189480130      -992.690741960   
       227          227.000000         3.977233354       310.446041747      -992.782068066   
       228          228.000000         3.889133441       303.569334576      -992.655352942   
       229          229.000000         3.938847762       307.449824537      -992.719793907   
       230          230.000000         3.982673032       310.870640039      -992.778808422   
       231          231.000000         3.836751398       299.480613483      -992.577532578   
       232          232.000000         3.922777637       306.195458460      -992.702299217   
       233          233.000000         3.945173494       307.943584505      -992.717737501   
       234          234.000000         3.926074916       306.452830146      -992.677029300   
       235          235.000000         3.998396243       312.097927520      -992.794181517   
       236          236.000000         3.879684890       302.831820608      -992.620142614   
       237          237.000000         3.935501463       307.188626583      -992.687900196   
       238          238.000000         4.018882563       313.697003162      -992.795939448   
       239          239.000000         3.914372389       305.539380236      -992.650910168   
       240          240.000000         3.967629378       309.696395952      -992.738501677   
       241          241.000000         3.931780422       306.898177816      -992.685211049   
       242          242.000000         3.924640348       306.340853764      -992.667077667   
       243          243.000000         4.030463701       314.600977920      -992.820866415   
       244          244.000000         3.897906130       304.254093645      -992.640964923   
       245          245.000000         3.912668765       305.406402598      -992.662646245   
       246          246.000000         3.986595901       311.176842668      -992.759596404   
       247          247.000000         3.922704291       306.189733373      -992.655811464   
       248          248.000000         4.000967687       312.298643599      -992.772768108   
       249          249.000000         3.920233729       305.996891748      -992.665080491   
       250          250.000000         3.887244153       303.421864740      -992.620635107   
       251          251.000000         4.010414849       313.036049156      -992.784634395   
       252          252.000000         3.904871662       304.797793629      -992.625675985   
       253          253.000000         3.907814015       305.027461268      -992.654721145   
       254          254.000000         3.920154414       305.990700743      -992.678248379   
       255          255.000000         3.864233090       301.625718307      -992.592378989   
       256          256.000000         3.987627941       311.257399378      -992.751082665   
       257          257.000000         3.903445975       304.686510509      -992.619461172   
       258          258.000000         3.832784463       299.170971304      -992.511315608   
       259          259.000000         3.928222786       306.620483812      -992.657483041   
       260          260.000000         3.857587466       301.106988962      -992.538082932   
       261          261.000000         3.905517598       304.848212673      -992.615712492   
       262          262.000000         3.897773156       304.243714216      -992.612689258   
       263          263.000000         3.817419401       297.971639440      -992.486487375   
       264          264.000000         3.972625672       310.086385535      -992.717515483   
       265          265.000000         3.947650004       308.136890350      -992.657638646   
       266          266.000000         3.907126201       304.973773427      -992.589432331   
       267          267.000000         3.966314852       309.593789642      -992.681995291   
       268          268.000000         3.884199943       303.184246532      -992.569202591   
       269          269.000000         3.971970120       310.035215946      -992.689802342   
       270          270.000000         3.974109007       310.202168446      -992.673113994   
       271          271.000000         3.861991825       301.450774648      -992.512367489   
       272          272.000000         3.975223438       310.289156234      -992.678398487   
       273          273.000000         3.962576092       309.301957817      -992.654852342   
       274          274.000000         3.964934365       309.486034649      -992.653752479   
       275          275.000000         4.008802163       312.910169672      -992.724247353   
       276          276.000000         3.878801875       302.762896148      -992.543625161   
       277          277.000000         3.964946729       309.486999697      -992.639582565   
       278          278.000000         3.991732603       311.577791924      -992.679348727   
       279          279.000000         3.890957479       303.711711241      -992.541508589   
       280          280.000000         3.962793045       309.318892196      -992.677606114   
       281          281.000000         3.898162689       304.274119528      -992.600041776   
       282          282.000000         3.925182201       306.383148520      -992.634849303   
       283          283.000000         3.990287403       311.464985721      -992.708547897   
       284          284.000000         3.840975144       299.810301225      -992.492832593   
       285          285.000000         3.886670563       303.377092699      -992.572199793   
       286          286.000000         3.911807412       305.339169020      -992.605400631   
       287          287.000000         3.867892553       301.911360507      -992.518452738   
       288          288.000000         3.947583162       308.131672976      -992.644675612   
       289          289.000000         3.851457901       300.628540973      -992.512587960   
       290          290.000000         3.873008911       302.310721809      -992.532705309   
       291          291.000000         3.974482033       310.231285287      -992.666038429   
       292          292.000000         3.871390423       302.184389468      -992.517852254   
       293          293.000000         3.910629964       305.247262399      -992.581418032   
       294          294.000000         3.901314309       304.520121668      -992.575525739   
       295          295.000000         3.883211220       303.107070971      -992.532707697   
       296          296.000000         4.011208194       313.097974301      -992.704967051   
       297          297.000000         3.916895594       305.736330966      -992.576770156   
       298          298.000000         3.891880717       303.783775329      -992.552036519   
       299          299.000000         3.938935662       307.456685614      -992.626092194   
       300          300.000000         3.844714674       300.102193163      -992.495006653   
       301          301.000000         3.900409020       304.449458644      -992.590177380   
       302          302.000000         3.863508370       301.569149686      -992.534551736   
       303          303.000000         3.818228500       298.034794267      -992.463268374   
       304          304.000000         3.951168690       308.411544141      -992.626650002   
       305          305.000000         3.876694916       302.598435800      -992.522371840   
       306          306.000000         3.851321460       300.617891009      -992.489247868   
       307          307.000000         3.880844748       302.922354208      -992.560652698   
       308          308.000000         3.810148728       297.404121386      -992.421924229   
       309          309.000000         3.925815104       306.432550307      -992.569552592   
       310          310.000000         3.910699081       305.252657350      -992.541605958   
       311          311.000000         3.862527507       301.492587665      -992.468363036   
       312          312.000000         3.986044125       311.133773336      -992.636252020   
       313          313.000000         3.946776145       308.068680605      -992.564816774   
       314          314.000000         3.964581918       309.458524115      -992.602210051   
       315          315.000000         3.961717631       309.234949942      -992.593947089   
       316          316.000000         3.858607703       301.186624375      -992.451748378   
       317          317.000000         3.970267403       309.902309015      -992.605099029   