    2698
 i =     6215, time =     6215.000, E =      -992.6153960172
  C        14.1416500023       11.1295070761       12.3934734590
  O        14.1193483433        9.9500547997       12.6197792350
  O        14.2932101177       12.2788223736       12.9114373339
  N        13.7201121379       11.5180981728       10.7587441765
  H        14.5743781320       11.4885500472       10.1463329217
  H        13.1673755331       10.8630309456       10.2249082821
  H        13.1360799070       12.3281093246       10.8898145614
  O        27.9633230006       17.4423721862        2.7485792962
  H        27.8333022177       18.2515627504        2.2135453337
  H        28.5865641699       17.0103817568        2.1783622613
  O        -2.7132827216       18.4613110299        5.4929624497
  H        -3.0453727214       19.3731455824        5.6006704511
  H        -3.0748437958       18.2409788336        4.6371842620
  O         0.8721684544       12.5077455724       -9.6264380170
  H         0.6502780002       11.5515136033       -9.4683937719
  H         1.8347685291       12.4629956743       -9.6651352650
  O        27.4833953440       25.6114144861       -3.7250496214
  H        28.4430431175       25.8249659986       -3.5545015332
  H        27.5177356230       25.6995403135       -4.6991036600
  O        25.2053966220       11.8567319497       10.5435280323
  H        24.7164261610       11.9280585662       11.3126767032
  H        24.6146038323       11.3872785333        9.8851514014
  O        21.5880451011       -5.0485925177        7.1380692469
  H        21.4505998707       -5.9621690869        7.3238543603
  H        21.2645034224       -4.6164028159        7.9472146607
  O        -4.9402610433       26.0079199455       -6.5075769471
  H        -5.4606840804       25.6727127156       -7.2078513758
  H        -4.1262617253       26.3447931528       -6.8842262226
  O        -2.1763125769        8.9381961303        5.1878861261
  H        -2.7050743708        9.6780088063        5.5437820197
  H        -2.6067068396        8.1984700482        5.5971592738
  O        27.0839942814        4.1644969573       -2.8653113873
  H        26.1274338372        4.4256019011       -2.8327122073
  H        27.1896712841        3.7268328087       -2.0160542476
  O        20.4277879357       25.5577388659       -4.5162083960
  H        20.8001517324       25.2365199168       -3.6885693045
  H        20.2915460561       26.4628004967       -4.2926101509
  O         0.3074806616        9.9314126997        5.7710091240
  H         0.3314017757        9.5917929131        6.7417058195
  H        -0.6448268261        9.7306998796        5.5127541302
  O         6.8711904923       17.0770608197      -10.4352651103
  H         7.4201570991       16.9839515637       -9.6334348239
  H         6.3781688745       17.9170105088      -10.2027799824
  O        24.6189324657        5.0531639556       -2.9547592467
  H        24.6188827731        4.4261859016       -3.7282071075
  H        23.8988795337        5.6717993443       -3.2342175068
  O         2.6907483214        1.8966183076       -7.6009026752
  H         2.7513967530        2.5375146825       -8.3719599578
  H         1.8283672088        2.1679820167       -7.1748389740
  O        25.4246642494        1.6839795423       -1.4888713926
  H        25.6060728833        1.5884476290       -2.4433529089
  H        24.5351075283        2.0211395518       -1.5558961950
  O        11.4409348017        1.3361150936       -7.6678810504
  H        11.9893427059        1.7759190343       -7.0131913937
  H        10.7240530908        1.9672692828       -7.8004617932
  O         0.5465464574       20.2300102222        1.7109475262
  H         0.3057919646       19.5495689824        2.3902409699
  H         0.2286427564       20.9896873496        2.2432771303
  O        26.2641629539       -0.9075881532       -1.5697919457
  H        25.4793500469       -1.4890664965       -1.5762430563
  H        25.9605971241       -0.0232781242       -1.3650512886
  O        21.2322249032       28.5845761371       -8.1473147453
  H        21.2953477125       29.3678133934       -8.7359118590
  H        20.7651074667       29.0170336353       -7.3772762592
  O        15.3981123097       13.3136460792       -9.0616155573
  H        15.2227874508       14.2604292699       -8.9044184031
  H        15.2426343527       13.2531312186      -10.0221104481
  O        11.3603672272       14.2048449822      -11.0104622910
  H        12.2068487138       14.7351005192      -11.0644661724
  H        10.8551293192       14.5916563267      -11.7100183504
  O        19.9123296118       25.8341262146      -11.2837601984
  H        19.8150732450       24.9234116384      -10.8711700828
  H        19.0014417036       26.1991006725      -11.1913848524
  O        24.9159158708        4.0417562235       -7.1782632074
  H        24.6619478455        3.6634764395       -6.3153424193
  H        24.3468829870        3.5153274134       -7.7733265332
  O        24.3719953497        3.0127065591       -4.5681743130
  H        23.6456790656        2.3895733306       -4.3223117644
  H        25.1235380494        2.3835275821       -4.6488330142
  O         1.9199948723        8.3479278088       -8.4478274087
  H         2.1050314472        8.0459947943       -9.3425181851
  H         1.9847702052        7.4883898152       -7.9675262263
  O        20.6832153973       20.1985152096       -0.1218339418
  H        20.1531785572       19.8569105402        0.6625988053
  H        20.0815510822       19.8575726418       -0.8281059057
  O        14.5205851432        7.1842136143        1.9511628649
  H        13.6855946684        6.8723762525        1.6029635464
  H        15.1836232569        6.6183035235        1.4686260306
  O         1.4114848284       23.3603952177        1.3337053224
  H         1.3219920265       24.1408744807        1.8824287682
  H         0.4871491986       23.0683225690        1.2293783566
  O        27.8451309711        8.3042867580      -11.7404632521
  H        27.2894189832        7.4786571809      -12.0104332864
  H        27.9191647921        8.6811272257      -12.6740146447
  O        11.5233155397       -1.5087230880        1.2821146110
  H        12.3379344412       -1.4236194624        0.8063786428
  H        10.9762205453       -0.7708518351        0.8972630547
  O        21.9634951256       -3.4990539192        2.4933600086
  H        21.4130122646       -3.7241836339        3.2634666541
  H        21.4309397237       -3.8558543500        1.7527139300
  O         3.6421349343        5.6321491863      -13.8477980799
  H         3.4113937203        5.9503861343      -14.7728585184
  H         4.4204846135        6.2021879453      -13.6447059543
  O        29.1199886190       -4.5823629813       12.4391506341
  H        28.2554486632       -4.9634767389       12.2892215932
  H        29.7276641101       26.7118043016       12.5264534073
  O        13.7120850738       -5.6887205596       12.0314947228
  H        14.5508268271       -6.2056192063       12.1659801711
  H        13.0955674432       -6.3263071201       12.4444069619
  O        10.3937339707        6.5890313195        0.0119717504
  H        10.7376872657        6.0098357235        0.7281791992
  H        10.0662999749        5.8903057969       -0.5837722519
  O        10.5722992187       -1.6776962984      -10.2888061012
  H        10.7163159793       -2.6330861517      -10.2771852854
  H         9.7106898681       -1.6096767202       -9.8215361781
  O        27.5492414682       16.8414423433        9.4034892630
  H        27.2295844904       17.7389862046        9.1353022173
  H        27.0088753134       16.2545708731        8.8637632287
  O        26.7863246464        8.5828974123        1.6740976859
  H        26.3074294033        8.5926244105        0.8024122238
  H        26.0235484412        8.4969727520        2.2671009493
  O        27.9748936130        5.4352331163       -6.2515768648
  H        28.3845998015        5.6431825265       -7.1182743055
  H        27.4566521866        6.2588356082       -6.1079325072
  O         7.1475271196        4.6375195158      -11.2008485451
  H         8.0743529983        4.2859474172      -11.1914486475
  H         6.6252995516        3.8636426204      -10.9046876147
  O        11.7241970762        5.1920344048        2.0933950757
  H        12.1883055994        4.4256882560        1.6476398823
  H        12.0489726348        5.1161213825        3.0106364574
  O         5.8089956020        1.0945734634        3.3830986799
  H         5.8004392916        0.1157209231        3.5478257539
  H         5.4740495601        1.1211439293        2.4972505934
  O         5.6256324137        2.3595227804      -10.5212366631
  H         4.6677190236        2.2732713047      -10.8224003147
  H         6.0121144221        1.5698038525      -10.8904831029
  O        27.1738913835        3.9314800577       -0.1000329739
  H        27.6614491103        4.5196210065        0.5287153437
  H        26.3206151159        4.4278587823       -0.1079208337
  O        14.9432139152       15.1875898299        1.5012683687
  H        14.2387502954       14.8305570881        0.8895812814
  H        15.4276447999       15.7481182418        0.8939815512
  O         3.7294252834       12.1565283193       -9.3072703802
  H         3.9599449619       13.0958690025       -9.2868791186
  H         4.5779225840       11.7671160381       -9.3023740910
  O         9.5282739705       16.1350898980       -4.2755344181
  H         9.3806178321       15.4149717493       -4.9446910871
  H         8.7278432594       16.6524787330       -4.5150253086
  O        28.5474633814        1.1652715769        8.5195052815
  H        27.6192843306        1.2535497778        8.8057487115
  H        28.4766026324        0.3719769656        7.9251563726
  O        20.6814961698       11.8055736027        7.1980807254
  H        20.9666614114       12.5031968697        6.5312260969
  H        21.1509577257       11.0519312359        6.7350112603
  O        10.9356332144       -1.3395745431       -7.2572051826
  H        10.8539089889       -1.6457096933       -8.2049807608
  H        11.0259779971       -0.3456456479       -7.4076259879
  O        15.8045386572       17.3219910439        0.0433196629
  H        15.6429970893       18.2586561303        0.2701048020
  H        15.4458662981       17.2380206204       -0.8628778690
  O        12.1905251715       11.6479657203        7.3153402757
  H        11.5547696638       12.1566255471        6.8048038421
  H        13.0210998094       11.9981775765        6.8915568272
  O         9.9704218347       19.1210393817        3.7285248560
  H         9.0365038577       19.2101784489        3.3689260317
  H        10.3788683042       18.5251056144        3.0493765234
  O        10.7254930256       27.0726080422       -0.3179151768
  H        11.1637569583       26.5774612046       -1.0576165591
  H         9.7912520234       26.7732068366       -0.4647195837
  O        11.0667090450        1.2124080627      -11.3341622786
  H        10.8967079423        0.2759427444      -11.4275044000
  H        11.6931713126        1.1565871938      -10.6318881496
  O        14.0250980151       18.9436590788        5.7156626294
  H        14.7950459912       19.3390631884        5.4228531952
  H        13.3287337746       19.5892545679        5.4750740440
  O         3.2797996573       -0.3746287418       10.2119555922
  H         2.3247591148       -0.4157183112       10.1553420791
  H         3.4345422623        0.5859793776       10.2660235682
  O        18.8387359267       -0.6854274586      -10.1995908973
  H        18.7866738533        0.1907131108      -10.6354170627
  H        19.8469104569       -0.8363467689      -10.2462339975
  O        24.7900555961       22.7932728158      -12.5003435790
  H        23.9279336650       22.8527982503      -13.0114308692
  H        24.9584195642       23.7359403154      -12.3447645807
  O         8.2567196361       -9.6792378279        8.8942082384
  H         7.3777371869       22.7466967946        8.6809466194
  H         8.5342633615      -10.0231942964        8.0455459211
  O         5.0596315116       19.1276054649        0.9615689140
  H         5.5565929417       18.3619163778        0.5835486780
  H         4.1397404188       18.7550387840        0.8846377433
  O        22.5807135061       19.3913202009        2.0203259570
  H        22.6482077078       19.3433041949        1.0181331975
  H        21.5959295829       19.3656850662        2.0821175098
  O        12.0089886392        9.8231228512       -1.7504334861
  H        12.5361849502        9.3115508036       -1.1244588660
  H        11.1634223877        9.3004997325       -1.7408933591
  O        27.1632866343        6.4218742321       12.4368070208
  H        28.0625336447        5.9934324355       12.6152772678
  H        27.2717642393        7.3231264981       12.8371404481
  O         8.3814356458        0.3894336817        1.8446590956
  H         7.9884198583        0.5423440438        2.6933278004
  H         8.5818819334       -0.5519874722        1.8894152522
  O        23.4469266849       23.3323068449        2.0838932914
  H        23.0558614796       22.8762644651        1.2930841378
  H        24.2712035478       23.6169868127        1.6853178429
  O        24.3232301560       28.7599086359       -1.0768180415
  H        25.1325120333       28.2695721934       -1.1244216862
  H        23.8506376168       28.5022268456       -1.8994178639
  O        21.0543558985       12.5467867800        0.1555350761
  H        20.5625055490       12.8049952590        0.9928464471
  H        21.9366675295       12.9320748874        0.3575931697
  O        14.4715457195        0.0557443854       12.2218000671
  H        14.5171243048        1.0293466793       12.3432146122
  H        13.6729358976        0.0053122634       11.6665922515
  O         4.9408066591       24.0327405415       11.3247811957
  H         5.3826489236       23.6044081172       12.1029193292
  H         5.4703635173       24.8962534182       11.3268793166
  O         0.2372790394        1.2863017309        1.5595969951
  H         0.0064546573        2.1608133809        1.1035486521
  H         1.1293125283        1.1213588905        1.2791114220
  O         8.6180816047       10.3822762693      -12.5412049095
  H         9.3755300923       10.9763965610      -12.7498565665
  H         8.9034420149        9.9253779028      -11.7123555156
  O         8.5430692236       -1.9183327352       -5.4006968795
  H         8.4571818500       -0.9377719100       -5.4309144252
  H         8.7918817673       -2.1014968183       -6.3161093430
  O        27.3603207268       12.5221961242      -12.6176460103
  H        26.4639697798       12.6043156924      -12.2989269576
  H        27.8324990707       12.2436550830      -11.8030411738
  O        17.2649361863       11.1582024446        4.2002178122
  H        17.8683820908       11.8157331204        3.8155940831
  H        16.4003062422       11.6517595680        4.3351271029
  O        12.5659610224        3.1847935530        0.3859557099
  H        12.6623658595        2.5619053191        1.1198520699
  H        12.5080663697        2.5678287870       -0.3746166271
  O        10.8551538797       14.8156446833       -7.5424052886
  H         9.9216711982       14.6993852884       -7.1618600200
  H        10.6364416727       15.6046924972       -8.0887975312
  O        22.0680158592       -1.1290005852       -1.8982288599
  H        22.5627901382       -1.8118465626       -2.4389274029
  H        22.4751951912       -1.3234876811       -1.0365055324
  O        23.5010687348        3.4310836923      -13.6379474340
  H        23.4800173646        2.9901708122      -12.7614079591
  H        22.5468538512        3.4240072025      -13.8446909087
  O        11.4680216267       20.0013414814        0.7934261177
  H        10.9221282242       20.7401042323        1.1113379624
  H        11.0975836577       19.2021279865        1.1998534006
  O        25.6830890975       -0.3364268691      -10.9887362858
  H        25.2763346598       -1.1905365879      -10.7646496531
  H        25.7326231488       -0.4806754966      -11.9621471285
  O        10.8473660415       19.2189316844       -5.7062142480
  H        11.8223309939       19.2986954193       -5.8482657328
  H        10.7529721367       19.1493790004       -4.7302185830
  O        18.0606474953       15.5562299471       12.2353423436
  H        17.2370762888       14.9585677849       12.1423983120
  H        18.7448142314       14.9660341177       12.7001295114
  O         6.1899198298       17.5958506083       10.3694288627
  H         6.4168979985       18.5362349039       10.2384640902
  H         6.6425233941       17.2598822509       11.2304062962
  O        11.2999191881        2.1452380305        5.3902128211
  H        11.4139175562        2.9718900087        5.8576692188
  H        10.3003857105        2.0059921608        5.5145121542
  O        21.7043662408       13.5680740772        5.7537673466
  H        22.2217430958       12.9947819977        5.1253542369
  H        22.1063602908       14.4447944706        5.5207122091
  O        22.6538946954       19.6762450935        6.3693745383
  H        22.0257946643       19.1133162170        5.9025830652
  H        23.0684515573       20.2111033525        5.6667076625
  O         9.7087330189        4.4626160369       -1.5683862133
  H         9.9186696435        3.6151451207       -1.1637784330
  H         8.9057849590        4.1986544665       -2.1156929082
  O         2.5990359823       -0.6169565505        4.4235982738
  H         3.2647852133       -1.2873221294        4.6382902760
  H         1.9232230754       -1.1574105958        3.9640711224
  O        -0.4475844743        3.5671824218        4.9179132607
  H         0.4314542429        3.8895341402        5.0632888815
  H        -0.4947375711        2.6816197523        5.3101357893
  O         8.8344776563       -4.3367365237        4.5483282070
  H         9.6052074827       -4.8552607278        4.0618684518
  H         8.3055263691       -4.2763122536        3.6535300489
  O        17.9609763396       18.6322823322       10.6251052079
  H        18.4147281415       18.0179723629       11.2694480209
  H        17.6579213220       17.9557474292        9.9613662034
  O        19.9905608016       26.2443596826      -13.8865329899
  H        20.0667841818       26.0209763493      -12.9604034042
  H        19.1834342076       25.8223963983      -14.0956854641
  O         9.3925484663        2.9819609632       -8.3498389359
  H         9.6502599660        3.7345806651       -7.8715021209
  H         8.4382610332        2.9715459688       -8.1238484450
  O        17.8713291816       26.5127099343       -0.1160003213
  H        17.9843661876       -4.6807867685        0.3557748358
  H        17.2281363289       26.0897581007        0.5112308912
  O        18.3707065334       21.9794348509        3.4466543723
  H        17.6119491729       21.8440075211        4.0209776950
  H        18.9064262460       22.6227590389        3.9869203451
  O        10.0952717053        1.6761314028       10.8795230783
  H        10.6802396186        2.4868504922       10.6903233687
  H         9.2304465932        2.0902759077       10.5248419335
  O        24.1530101174       -5.4033554727        4.2359735891
  H        24.0649989411       -5.2040668746        3.2943998129
  H        24.6582574298       25.7595790752        4.2332546766
  O         1.0021115050       12.4818991331        5.9979049312
  H         0.7321905301       11.5353411529        5.9124787901
  H         0.4570544751       12.7589363206        6.7308454747
  O         3.9770552983        4.2457445438        3.9137352604
  H         3.5293753401        4.1702593568        3.0194239117
  H         3.2865045383        4.8148640836        4.3946791194
  O        20.7655325943        8.5159254505       11.9438457955
  H        21.5245925697        8.2153564458       11.4023139679
  H        20.0474750529        8.5278178864       11.2947906429
  O        22.2093378593        5.2215568446       -7.4373004633
  H        23.0729566810        5.7110255799       -7.2702041132
  H        21.5886108904        5.9795506040       -7.3250624617
  O        -0.7916955300       15.7716602000      -12.8967270913
  H        -0.0106766766       15.6777362915      -13.4229246978
  H        -0.9142662407       14.8655558439      -12.5597850709
  O        20.7061709564        7.6084685347        7.1384338366
  H        19.9242352648        8.1133194805        7.5362390380
  H        21.1312363161        7.2306501260        7.9696086492
  O        12.0426109509       -1.0096146350       -4.7382173058
  H        11.3440115389       -0.6694146994       -4.1735762320
  H        11.5244188603       -1.3249884561       -5.4993964442
  O        19.3959216224        4.0709006922        9.8540229941
  H        18.9226556717        4.7072202046       10.4082503970
  H        19.2186684513        3.2498103743       10.3726974549
  O         4.6871759046       21.4496212120        2.5355730100
  H         4.6366102483       20.7026356878        1.8699838983
  H         5.5105279481       21.2389081137        3.0318443565
  O         6.0797545812       21.1438875573       10.5606190521
  H         5.6310239925       21.9829146970       10.6702485304
  H         6.9597566934       21.4099424881       10.1411146560
  O        18.0226399050        2.6059744092       -4.4862054668
  H        18.2335096082        1.7221863156       -4.1660396285
  H        17.9220669113        2.4064040796       -5.4273217024
  O         8.4299269305       29.5348094307        0.3597543232
  H         9.2488292365       -2.3988526025       -0.1348129109
  H         7.7273402682       -2.2003328056       -0.2769388321
  O         0.1280050920       20.3567309721      -10.7339823196
  H        -0.5028076680       20.6934101857      -11.4448364957
  H         0.1415028159       21.1376842852      -10.0935478249
  O         1.1643808528       -4.8521335126        1.5101002347
  H         2.1446112717       -4.9979519949        1.4851122053
  H         0.9099517456       -5.5901379974        2.0773416910
  O         9.5741094360        9.0839897545      -10.1636340290
  H         9.4193940117        8.1169499658      -10.0094235521
  H        10.4975299169        9.0019417805      -10.4888508841
  O        22.9676671071       -1.7871293619        0.6885892609
  H        22.5311561254       -2.4666104999        1.2776875546
  H        23.7454782565       -2.2587157084        0.3382186648
  O        13.5072262598        2.6435155047       -2.3864023375
  H        14.4756699628        2.9181719447       -2.2381768318
  H        13.6838832097        1.7365939074       -2.6953441930
  O        12.7892234631        9.0815998967        7.8478763383
  H        13.1075986719        9.3708328019        6.9798177626
  H        12.0830739157        9.7867845728        7.9170481969
  O        20.7233034712       -4.8348160344        0.3598170087
  H        21.2012487233       26.3568817923        0.0251447157
  H        19.7969039021       -5.1785108592        0.3631349144
  O        -2.9303680360        9.3183683478        2.6999348793
  H        -3.8163252670        8.9615533441        2.5508124044
  H        -2.7541848255        9.0874954005        3.6293040806
  O        21.3305060774       22.2340862284       -6.4759816151
  H        20.4825083511       22.1347391335       -5.9326293612
  H        21.2619930483       21.4262184125       -7.0178493331
  O         1.5892080526       -1.8550351128       -3.2158200539
  H         1.2390476554       -2.6987242211       -3.5964110916
  H         1.5745799005       -2.0930469548       -2.2257933632
  O         8.0909457298        5.7796704229        2.7857969532
  H         7.5475997046        5.0098726584        2.4686961387
  H         7.4582237489        5.9675225012        3.5507958758
  O        26.7825963537        4.4997302194        4.6227541517
  H        27.1904268447        4.5898250351        3.7967409628
  H        26.6861048221        3.5381148566        4.7820566300
  O        20.7480340377       11.5191164777        3.6824194096
  H        20.1796290422       12.0617262221        3.0139061505
  H        20.7286313213       10.6660051212        3.2404485583
  O         0.6633416597       11.3766073010       -0.2714519793
  H        -0.0630648755       11.0035709414       -0.8845888002
  H         0.3393134963       10.9575689351        0.5807048173
  O        12.9761086718       15.3267704845        4.0389042087
  H        13.4163180495       15.5241953437        4.9046957541
  H        13.3778684569       15.9903161399        3.4725689914
  O        11.3979762036       28.0820131218       -5.7401245888
  H        11.5270433778       28.8425808237       -6.3225487417
  H        12.2713754561       27.6519653390       -5.7893832151
  O        31.6599263808       27.4547187376       -9.6636901537
  H        31.7464664032       28.4494195503       -9.6213617619
  H         0.2727892751       27.3121995580      -10.4400617556
  O         1.8755021768       28.8244874261       -6.6997996609
  H         1.6054507295       28.5848510874       -5.7776033459
  H         2.1424435070       27.9539889904       -7.0310255671
  O        -0.0613325092        1.1845386260        6.1656681965
  H         0.9084157151        1.1568694789        6.2902588420
  H        -0.2700189702        0.4306794546        6.7986750152
  O        12.4613800023       -0.1958154666       -1.0478218193
  H        11.8885142612       -0.9945404169       -1.2541158089
  H        13.3507850986       -0.5775592367       -1.2217336847
  O        14.6961530350       23.3651054689      -11.2077843583
  H        14.3840133870       22.6347372306      -11.7804207765
  H        15.0034058806       24.0248931362      -11.8967313062
  O        13.6841979127       11.6840524833        0.8515415102
  H        14.5711958326       11.2487859028        0.7829318984
  H        13.6528216770       12.2140793571        0.0623549257
  O        -0.7810213720       22.7945080493        9.8447265006
  H         0.1767974785       22.4775317412        9.8120009859
  H        -1.2585381429       21.9677699414       10.1167930561
  O         4.8353114056       22.5037410661        5.6598313908
  H         4.2826030369       22.4377025606        6.4503013159
  H         4.5394210849       21.7954677877        5.1109486175
  O        23.9772427532       -0.4046570379      -13.8989367204
  H        23.4920173222       -1.2975634845      -13.6569448900
  H        23.1691135614        0.2057505568      -13.9145473813
  O         2.3775885023       16.3955498064       -5.9500344643
  H         1.6745000846       15.7624322397       -5.7733931379
  H         2.0965855440       16.7985366244       -6.7809806529
  O        22.6193495809        7.1265932586       -3.8844002590
  H        23.0823636387        7.5507843705       -4.6880108397
  H        22.0484983784        6.5177918475       -4.3443198686
  O        17.0429952325        0.5728121242      -12.8990684706
  H        17.0990970782        0.9136508531      -11.9865873287
  H        16.8254869861        1.3769226118      -13.4126589483
  O        23.4388834113        2.1745045106       -8.7273473922
  H        23.3414319343        1.9309556902       -9.6822455297
  H        23.1085774370        1.3460381506       -8.3095609957
  O        14.3956885134        2.7553855657       12.9967616717
  H        14.4346077235        2.4173781720       13.8603197760
  H        13.8790530519        3.5705592586       12.9983288173
  O        15.3583153194       17.0903042054      -10.9592587590
  H        15.5410548346       16.9513678106      -10.0181364401
  H        16.1586408706       16.6486847284      -11.3148569924
  O        15.6268594355       16.1578690232       -8.3828915758
  H        16.0847359772       16.8569905522       -7.8950584262
  H        14.6975299250       16.2860969470       -8.0756642876
  O         8.6550133359       10.8831723185        8.2719922331
  H         8.8416087459       10.2919786598        7.4923226715
  H         8.1463254149       11.5894948892        7.8762507729
  O        24.4705121191       16.4109552042        0.8649163118
  H        24.4639618078       16.9359769986        1.6828264597
  H        23.9957889935       17.0566804531        0.2620339005
  O         6.9524319000        0.4466594036       -7.4837208569
  H         6.6437368387        1.3520724837       -7.7645277437
  H         7.2684902663        0.6421174553       -6.5441518683
  O        -1.5728491888       18.4710893269       -0.9653347658
  H        -0.6051354571       18.4018642916       -1.0255937502
  H        -1.7523159826       18.1806875321       -0.1005821717
  O        10.8431134234       -0.9980983091        4.0247117272
  H        11.3190921714       -1.2366693553        3.2462925888
  H        11.5922242857       -1.0715226425        4.6827885416
  O         5.7843870741       12.8027505707       -1.3853066089
  H         5.9671444205       11.8988578104       -1.1073756433
  H         4.7819562039       12.8064521540       -1.3330590255
  O        19.6318258338       20.7318724855       10.2839036545
  H        20.4537487661       20.1742615390       10.2272651987
  H        18.9466440398       19.9856640622       10.3962741204
  O        12.3703502278       10.0851503285       -8.7824287846
  H        11.5159513306       10.6400786114       -8.6893536206
  H        12.9308858538       10.6048197145       -8.1720020822
  O        19.3970149348       15.0797781941       -7.6414629837
  H        18.7423063898       15.6748092497       -7.2463849593
  H        19.2969903810       15.2716485709       -8.5879292687