#     Step Nr.          Time[fs]        Kin.[a.u.]          Temp[K]            Pot.[a.u.]     
         0            0.000000         3.843405441       300.000000000      -992.840262742    
         1            1.000000         4.209408362       328.568642508      -993.366379471    
         2            2.000000         3.919867341       305.968293008      -992.991597880    
         3            3.000000         3.729526923       291.111123733      -992.701443330    
         4            4.000000         4.287737571       334.682689845      -993.490659327    
         5            5.000000         3.806944953       297.154048198      -992.818901387    
         6            6.000000         3.843606591       300.015700924      -992.914420648    
         7            7.000000         4.011147259       313.093217960      -993.176414855    
         8            8.000000         3.663090096       285.925345524      -992.651338112    
         9            9.000000         4.156040165       324.402946445      -993.357754842    
        10           10.000000         3.829944201       298.949272431      -992.951465633    
        11           11.000000         3.513955178       274.284503547      -992.506514246    
        12           12.000000         4.026495168       314.291210944      -993.236974137    
        13           13.000000         3.681604085       287.370469335      -992.717936587    
        14           14.000000         3.844517758       300.086822737      -992.962365458    
        15           15.000000         3.905769856       304.867902863      -993.079975914    
        16           16.000000         3.475461000       271.279810546      -992.439623469    
        17           17.000000         4.075948354       318.151317875      -993.265569969    
        18           18.000000         3.896123964       304.114985292      -993.001587832    
        19           19.000000         3.604595533       281.359506958      -992.614462795    
        20           20.000000         3.985296731       311.075434913      -993.181821594    
        21           21.000000         3.636706713       283.865970062      -992.624866981    
        22           22.000000         3.984016547       310.975509195      -993.081567941    
        23           23.000000         4.088179520       319.106031058      -993.225217193    
        24           24.000000         3.549918248       277.091628943      -992.468715350    
        25           25.000000         4.056533414       316.635869586      -993.186685240    
        26           26.000000         3.926845459       306.512975473      -992.972643938    
        27           27.000000         3.773451494       294.539690266      -992.768791005    
        28           28.000000         4.062602358       317.109585730      -993.259819785    
        29           29.000000         3.552876246       277.322517804      -992.524585947    
        30           30.000000         3.924252769       306.310600997      -993.047221133    
        31           31.000000         4.106618494       320.545299473      -993.330066349    
        32           32.000000         3.577441314       279.239963284      -992.623022223    
        33           33.000000         3.944637959       307.901782874      -993.187286137    
        34           34.000000         3.735999677       291.616359586      -992.867313900    
        35           35.000000         3.724819566       290.743687274      -992.835687496    
        36           36.000000         4.093347650       319.509433409      -993.380208878    
        37           37.000000         3.487537411       272.222444204      -992.549219987    
        38           38.000000         3.759773435       293.472038725      -992.951606904    
        39           39.000000         3.980757179       310.721096669      -993.238640889    
        40           40.000000         3.603932922       281.307786285      -992.695391790    
        41           41.000000         3.958675202       308.997470791      -993.266718760    
        42           42.000000         3.602595278       281.203375450      -992.770890872    
        43           43.000000         3.618614721       282.453785523      -992.764513937    
        44           44.000000         4.115152837       321.211454276      -993.459160198    
        45           45.000000         3.574816333       279.035068277      -992.700209989    
        46           46.000000         3.767726219       294.092799417      -993.014653259    
        47           47.000000         3.879467572       302.814857620      -993.159836368    
        48           48.000000         3.615978383       282.248004168      -992.739959073    
        49           49.000000         4.099085363       319.957295072      -993.439326424    
        50           50.000000         3.671032120       286.545266399      -992.846730390    
        51           51.000000         3.586507676       279.947645145      -992.719289639    
        52           52.000000         4.095205495       319.654448978      -993.392236301    
        53           53.000000         3.692456019       288.217525498      -992.771244814    
        54           54.000000         3.921378280       306.086230557      -993.119281171    
        55           55.000000         3.874868886       302.455903670      -993.059279049    
        56           56.000000         3.576185131       279.141910918      -992.590395643    
        57           57.000000         4.165688540       325.156057853      -993.385563792    
        58           58.000000         3.796731086       296.356796909      -992.861889790    
        59           59.000000         3.634354547       283.682369895      -992.664088087    
        60           60.000000         3.987325180       311.233767120      -993.174135745    
        61           61.000000         3.640029506       284.125333249      -992.618755366    
        62           62.000000         4.003615522       312.505322412      -993.120380870    
        63           63.000000         3.879492731       302.816821429      -993.015490727    
        64           64.000000         3.428768821       267.635216220      -992.402603431    
        65           65.000000         3.984419854       311.006989618      -993.183926288    
        66           66.000000         3.744414788       292.273207588      -992.810019734    
        67           67.000000         3.670784914       286.525970486      -992.748984712    
        68           68.000000         3.880298227       302.879695040      -993.046608130    
        69           69.000000         3.425461267       267.377042553      -992.385847704    
        70           70.000000         3.909458980       305.155860303      -993.057357545    
        71           71.000000         3.918186484       305.837092427      -993.099144686    
        72           72.000000         3.453554616       269.569890698      -992.448758961    
        73           73.000000         3.863861968       301.596750113      -993.079567676    
        74           74.000000         3.617897755       282.397822218      -992.690946860    
        75           75.000000         3.742966616       292.160169422      -992.849718009    
        76           76.000000         3.994274022       311.776164389      -993.237707950    
        77           77.000000         3.418217854       266.811652247      -992.433731770    
        78           78.000000         3.822131680       298.339460053      -993.016374973    
        79           79.000000         3.904359002       304.757777543      -993.104967856    
        80           80.000000         3.595938722       280.683792814      -992.652882915    
        81           81.000000         3.953232810       308.572660623      -993.179034558    
        82           82.000000         3.574334272       278.997440689      -992.627821787    
        83           83.000000         3.755673152       293.151987920      -992.857043971    
        84           84.000000         4.119859551       321.578840461      -993.380348665    
        85           85.000000         3.566865054       278.414425073      -992.601295991    
        86           86.000000         3.860313333       301.319758656      -993.055213639    
        87           87.000000         3.854052240       300.831044107      -993.023155201    
        88           88.000000         3.661507116       285.801784761      -992.713806961    
        89           89.000000         4.081352399       318.573134759      -993.345648113    
        90           90.000000         3.591940768       280.371729406      -992.680674624    
        91           91.000000         3.680936318       287.318346261      -992.830290124    
        92           92.000000         4.065531360       317.338211250      -993.355932661    
        93           93.000000         3.624527165       282.915285994      -992.698830365    
        94           94.000000         3.886983473       303.401517158      -993.123811429    
        95           95.000000         3.726336903       290.862124216      -992.903592974    
        96           96.000000         3.545939527       276.781066792      -992.628009310    
        97           97.000000         4.074839166       318.064739301      -993.359243367    
        98           98.000000         3.616303520       282.273382961      -992.716455673    
        99           99.000000         3.626241356       283.049088432      -992.771080763    
       100          100.000000         3.911662123       305.327828377      -993.164250319    
       101          101.000000         3.566168076       278.360021878      -992.615318103    
       102          102.000000         3.960080733       309.107180582      -993.166069241    
       103          103.000000         3.731715813       291.281979225      -992.860972578    
       104          104.000000         3.460616902       270.121142930      -992.484174128    
       105          105.000000         3.994227845       311.772559992      -993.214621282    
       106          106.000000         3.643948581       284.431239717      -992.696756174    
       107          107.000000         3.691234742       288.122197753      -992.796006206    
       108          108.000000         3.837092516       299.507239739      -993.021525075    
       109          109.000000         3.454518226       269.645106040      -992.447690032    
       110          110.000000         3.936769922       307.287637139      -993.112665371    
       111          111.000000         3.752459225       292.901122380      -992.858779878    
       112          112.000000         3.430748416       267.789735068      -992.428338703    
       113          113.000000         3.858519202       301.179716364      -993.043271723    
       114          114.000000         3.541525057       276.436491901      -992.553082837    
       115          115.000000         3.703195419       289.055797687      -992.779488160    
       116          116.000000         3.813481220       297.664241636      -992.952629090    
       117          117.000000         3.357229148       262.051131379      -992.300221238    
       118          118.000000         3.864791874       301.669334597      -992.994410708    
       119          119.000000         3.784002239       295.363236817      -992.846423396    
       120          120.000000         3.536776765       276.065860230      -992.504570042    
       121          121.000000         3.870133165       302.086253252      -993.016030574    
       122          122.000000         3.512824492       274.196246940      -992.480288880    
       123          123.000000         3.798944830       296.529592396      -992.866758991    
       124          124.000000         3.971723587       310.015972620      -993.128314132    
       125          125.000000         3.455457623       269.718431429      -992.413244857    
       126          126.000000         3.847349672       300.307869965      -992.989297216    
       127          127.000000         3.781219689       295.146042742      -992.863464818    
       128          128.000000         3.673694429       286.753074980      -992.688260255    
       129          129.000000         3.978279439       310.527694775      -993.164625124    
       130          130.000000         3.470213761       270.870233249      -992.463551115    
       131          131.000000         3.710995219       289.664617165      -992.817839669    
       132          132.000000         3.955006351       308.711095740      -993.146173701    
       133          133.000000         3.532566080       275.737191972      -992.551140702    
       134          134.000000         3.837347363       299.527131997      -993.029509148    
       135          135.000000         3.628752284       283.245080933      -992.732810206    
       136          136.000000         3.588658834       280.115555499      -992.647382893    
       137          137.000000         4.003315723       312.481921359      -993.253394250    
       138          138.000000         3.506491558       273.701924870      -992.556860089    
       139          139.000000         3.658277715       285.549711385      -992.786425207    
       140          140.000000         3.868280534       301.941644664      -993.062595701    
       141          141.000000         3.590066310       280.225417109      -992.630202031    
       142          142.000000         3.964521820       309.453833104      -993.196204201    
       143          143.000000         3.672444210       286.655488188      -992.784919972    
       144          144.000000         3.591241199       280.317124010      -992.652397473    
       145          145.000000         4.056992970       316.671740604      -993.283205442    
       146          146.000000         3.656164312       285.384748076      -992.695297554    
       147          147.000000         3.791258558       295.929634500      -992.917300421    
       148          148.000000         3.861291124       301.396080864      -993.016914959    
       149          149.000000         3.593959858       280.529331032      -992.596578757    
       150          150.000000         4.054904758       316.508743571      -993.251351122    
       151          151.000000         3.748714441       292.608820381      -992.826804999    
       152          152.000000         3.585147943       279.841510196      -992.612752165    
       153          153.000000         3.976592159       310.395992772      -993.164063245    
       154          154.000000         3.664193047       286.011437183      -992.688440389    
       155          155.000000         3.884328648       303.194292699      -993.018266280    
       156          156.000000         3.869365040       302.026296625      -993.021387791    
       157          157.000000         3.526220532       275.241885308      -992.531644259    
       158          158.000000         4.019035490       313.708939982      -993.206471876    
       159          159.000000         3.819227997       298.112810768      -992.905078262    
       160          160.000000         3.678582051       287.134582101      -992.730198309    
       161          161.000000         3.936532506       307.269105419      -993.128145251    
       162          162.000000         3.599051545       280.926766594      -992.617433342    
       163          163.000000         3.932333288       306.941332194      -993.066718959    
       164          164.000000         3.948372830       308.193311131      -993.093945735    
       165          165.000000         3.546338444       276.812204555      -992.542440727    
       166          166.000000         3.937942615       307.379172563      -993.111480463    
       167          167.000000         3.760549908       293.532646947      -992.834898427    
       168          168.000000         3.732626982       291.353101188      -992.789654187    
       169          169.000000         3.964264091       309.433715843      -993.133768453    
       170          170.000000         3.552867064       277.321801080      -992.551741920    
       171          171.000000         3.882887451       303.081798969      -993.014318661    
       172          172.000000         3.974857647       310.260604079      -993.118200604    
       173          173.000000         3.629417547       283.297008498      -992.637118230    
       174          174.000000         3.938760292       307.442996997      -993.115327436    
       175          175.000000         3.713769894       289.881196569      -992.761391549    
       176          176.000000         3.788149782       295.686976511      -992.823844298    
       177          177.000000         4.082403545       318.655182835      -993.229950573    
       178          178.000000         3.648858707       284.814503349      -992.597029322    
       179          179.000000         3.918220403       305.839739984      -992.987837552    
       180          180.000000         4.001022499       312.302921989      -993.072958586    
       181          181.000000         3.762485866       293.683759633      -992.713839666    
       182          182.000000         4.058832484       316.815325294      -993.164266921    
       183          183.000000         3.724117356       290.688875764      -992.701271155    
       184          184.000000         3.779603086       295.019857568      -992.758702416    
       185          185.000000         4.130412161       322.402532618      -993.236750352    
       186          186.000000         3.750848247       292.775376226      -992.704179166    
       187          187.000000         3.931939123       306.910565371      -992.998958299    
       188          188.000000         3.894936387       304.022288008      -992.965187425    
       189          189.000000         3.690288249       288.048318511      -992.672850252    
       190          190.000000         4.066200692       317.390456501      -993.223233980    
       191          191.000000         3.737717087       291.750413333      -992.753535735    
       192          192.000000         3.727538824       290.955941069      -992.744825867    
       193          193.000000         4.024736949       314.153971784      -993.150270728    
       194          194.000000         3.735092443       291.545544710      -992.717606710    
       195          195.000000         3.986274231       311.151734472      -993.087206689    
       196          196.000000         3.885074393       303.252502410      -992.951471510    
       197          197.000000         3.654068755       285.221177736      -992.591028267    
       198          198.000000         4.062079196       317.068749905      -993.162166583    
       199          199.000000         3.802424922       296.801233672      -992.788714043    
       200          200.000000         3.792213242       296.004153102      -992.788014845    
       201          201.000000         3.993964199       311.751980892      -993.082881319    
       202          202.000000         3.685159307       287.647974978      -992.608410666    
       203          203.000000         3.977075776       310.433741869      -993.027078561    
       204          204.000000         3.883841124       303.156238640      -992.914030608    
       205          205.000000         3.626604247       283.077414218      -992.553537917    
       206          206.000000         3.999951826       312.219349746      -993.087396297    
       207          207.000000         3.783518932       295.325511965      -992.723566334    
       208          208.000000         3.842521458       299.930999998      -992.806774035    
       209          209.000000         3.986544383       311.172821400      -993.019726360    
       210          210.000000         3.628768012       283.246308583      -992.503994691    
       211          211.000000         3.946174871       308.021747720      -992.940615166    
       212          212.000000         3.892527273       303.834242743      -992.858254433    
       213          213.000000         3.657761053       285.509382952      -992.532664070    
       214          214.000000         3.970274413       309.902856204      -992.982170602    
       215          215.000000         3.742017539       292.086088463      -992.605202738    
       216          216.000000         3.859222243       301.234592722      -992.775295044    
       217          217.000000         4.018756110       313.687132772      -993.009455455    
       218          218.000000         3.630412878       283.374699870      -992.475833709    
       219          219.000000         3.898540123       304.303580463      -992.869573799    
       220          220.000000         3.865300977       301.709073080      -992.809387489    
       221          221.000000         3.709471216       289.545659866      -992.573676244    
       222          222.000000         4.002336653       312.405499295      -993.003912815    
       223          223.000000         3.711062354       289.669857415      -992.578356704    
       224          224.000000         3.835857921       299.410872423      -992.737246068    
       225          225.000000         4.028985474       314.485593741      -993.012882254    
       226          226.000000         3.690682726       288.079109731      -992.526620866    
       227          227.000000         3.927845963       306.591070576      -992.899152841    
       228          228.000000         3.845923590       300.196556021      -992.795618807    
       229          229.000000         3.734287457       291.482710928      -992.626367086    
       230          230.000000         4.042569992       315.545943837      -993.053392845    
       231          231.000000         3.728793536       291.053878584      -992.592122697    
       232          232.000000         3.806843272       297.146111460      -992.719445548    
       233          233.000000         3.974333013       310.219653382      -992.945886547    
       234          234.000000         3.693017155       288.261325406      -992.518911705    
       235          235.000000         3.960863325       309.168266414      -992.915066354    
       236          236.000000         3.849931997       300.509435341      -992.752403509    
       237          237.000000         3.738577922       291.817606463      -992.596644811    
       238          238.000000         4.055341282       316.542816797      -993.044322963    
       239          239.000000         3.751772606       292.847527794      -992.603475086    
       240          240.000000         3.812266051       297.569390667      -992.719555316    
       241          241.000000         3.923701686       306.267585819      -992.890670244    
       242          242.000000         3.663069548       285.923741621      -992.497197099    
       243          243.000000         3.950282359       308.342360928      -992.902434791    
       244          244.000000         3.822525997       298.370238723      -992.704981727    
       245          245.000000         3.702798403       289.024808333      -992.533236602    
       246          246.000000         4.010392121       313.034275145      -992.966419954    
       247          247.000000         3.752320725       292.890311663      -992.607593232    
       248          248.000000         3.836633630       299.471420975      -992.741167542    
       249          249.000000         3.910686355       305.251664011      -992.858506175    
       250          250.000000         3.649604617       284.872725983      -992.481272430    
       251          251.000000         3.970941142       309.954898265      -992.924738175    
       252          252.000000         3.878349507       302.727586175      -992.777031476    
       253          253.000000         3.776755910       294.797618977      -992.644307461    
       254          254.000000         4.038160314       315.201742992      -993.020166285    
       255          255.000000         3.783243243       295.303992858      -992.656606088    
       256          256.000000         3.931329863       306.863009093      -992.854552209    
       257          257.000000         4.015791129       313.455698883      -992.979595400    
       258          258.000000         3.751685088       292.840696497      -992.588910653    
       259          259.000000         4.044772194       315.717838421      -993.004254201    
       260          260.000000         3.948401216       308.195526821      -992.838202314    
       261          261.000000         3.862268013       301.472332695      -992.700913872    
       262          262.000000         4.082066150       318.628847195      -993.027035558    
       263          263.000000         3.800569075       296.656374122      -992.633569528    
       264          264.000000         3.945095307       307.937481498      -992.842041876    
       265          265.000000         4.035469908       314.991741242      -992.968970970    
       266          266.000000         3.784555876       295.406451390      -992.601033804    
       267          267.000000         4.034431493       314.910687016      -992.969474599    
       268          268.000000         3.901247653       304.514918786      -992.763695777    
       269          269.000000         3.845166378       300.137451264      -992.668658355    
       270          270.000000         4.056377419       316.623693317      -992.975541836    
       271          271.000000         3.759327556       293.437235303      -992.555284159    
       272          272.000000         3.904335723       304.755960539      -992.764489673    
       273          273.000000         3.990539402       311.484655712      -992.879248783    
       274          274.000000         3.777869354       294.884529737      -992.566281165    
       275          275.000000         4.021250971       313.881871058      -992.923388270    
       276          276.000000         3.848772854       300.418957567      -992.692358096    
       277          277.000000         3.788436113       295.709326298      -992.591685761    
       278          278.000000         4.016135180       313.482554025      -992.928048365    
       279          279.000000         3.739225147       291.868126087      -992.545810711    
       280          280.000000         3.848183448       300.372951024      -992.739776891    
       281          281.000000         3.892942766       303.866674375      -992.806155604    
       282          282.000000         3.715871862       290.045267305      -992.532355583    
       283          283.000000         3.980883152       310.730929606      -992.913628875    
       284          284.000000         3.802849023       296.834337207      -992.674392550    
       285          285.000000         3.739060313       291.855259903      -992.595777020    
       286          286.000000         3.937241417       307.324440064      -992.873249489    
       287          287.000000         3.704731331       289.175684469      -992.537282173    
       288          288.000000         3.860792454       301.357156819      -992.763708999    
       289          289.000000         3.869292431       302.020629081      -992.786726854    
       290          290.000000         3.673686500       286.752456108      -992.503165218    
       291          291.000000         3.946256920       308.028152093      -992.889407373    
       292          292.000000         3.807834169       297.223456689      -992.663287183    
       293          293.000000         3.772917422       294.498002809      -992.599417106    
       294          294.000000         3.941963304       307.693010582      -992.848802167    
       295          295.000000         3.707847829       289.418945158      -992.518115030    
       296          296.000000         3.888288533       303.503384650      -992.767249945    
       297          297.000000         3.907163054       304.976650022      -992.790414034    
       298          298.000000         3.723125491       290.611454975      -992.524951822    
       299          299.000000         3.962119027       309.266281255      -992.869639527    
       300          300.000000         3.815883745       297.851772602      -992.660877146    
       301          301.000000         3.813727932       297.683498949      -992.641409019    
       302          302.000000         3.961067518       309.184204912      -992.859432477    
       303          303.000000         3.712360161       289.771158714      -992.509540684    
       304          304.000000         3.876624347       302.592927537      -992.746553576    
       305          305.000000         3.891104314       303.723172576      -992.750829701    
       306          306.000000         3.738973805       291.848507411      -992.535040808    
       307          307.000000         3.967527124       309.688414404      -992.870652152    
       308          308.000000         3.804203891       296.940092468      -992.640308624    
       309          309.000000         3.807311323       297.182645565      -992.646251551    
       310          310.000000         3.958183617       308.959099701      -992.860705215    
       311          311.000000         3.724006998       290.680261692      -992.522716241    
       312          312.000000         3.890597733       303.683630986      -992.765361977    
       313          313.000000         3.908758996       305.101222484      -992.776205911    