#     Step Nr.          Time[fs]        Kin.[a.u.]          Temp[K]            Pot.[a.u.]        Cons Qty[a.u.]        UsedTime[s]
         0            0.000000         3.843405441       300.000000000     -1268.073371983     -1264.229491519         0.000000000
         1            1.000000         3.460377276       270.102438746     -1267.591212542     -1264.129556886        50.930987280
         2            2.000000         3.416573593       266.683308237     -1267.584260382     -1264.165713230        12.828884628
         3            3.000000         3.553628643       277.381246666     -1267.760861934     -1264.204628814        12.945793044
         4            4.000000         3.479508090       271.595709269     -1267.597268203     -1264.114576327        12.908341605
         5            5.000000         3.742806332       292.147658289     -1267.962342458     -1264.215818371        12.261516660
         6            6.000000         3.575447759       279.084354730     -1267.722447371     -1264.142769484        12.278652959
         7            7.000000         3.595817824       280.674356039     -1267.713146392     -1264.112642072        12.237995841
         8            8.000000         3.987534337       311.250093012     -1268.235347440     -1264.242683642        12.259146009
         9            9.000000         3.739555885       291.893942109     -1267.878013516     -1264.132863618        12.248230200
        10           10.000000         3.684483852       287.595251789     -1267.907543326     -1264.217034235        12.936591860
        11           11.000000         3.673533220       286.740491677     -1267.912619408     -1264.232662730        12.895928334
        12           12.000000         3.628708213       283.241640932     -1267.748625085     -1264.113131005        12.887803599
        13           13.000000         4.055860913       316.583377021     -1268.306717422     -1264.243720186        12.899817232
        14           14.000000         3.887409060       303.434736683     -1268.089672614     -1264.194736295        12.858024925
        15           15.000000         3.732261803       291.324596862     -1267.888152417     -1264.147978785        12.933922429
        16           16.000000         3.995652687       311.883777096     -1268.253020100     -1264.249077001        12.214764144
        17           17.000000         3.841751573       299.870906035     -1267.988827095     -1264.138380456        12.202013396
        18           18.000000         3.890671035       303.689352693     -1268.074270124     -1264.174499483        12.210479770
        19           19.000000         3.726522005       290.876572516     -1267.906296306     -1264.170271582        12.254714191
        20           20.000000         3.505602193       273.632504836     -1267.592790851     -1264.077325761        12.242234148
        21           21.000000         3.980709249       310.717355460     -1268.176566075     -1264.185670107        12.890815359
        22           22.000000         3.961877950       309.247463802     -1268.101854170     -1264.129429511        12.907572389
        23           23.000000         3.797523718       296.418666411     -1267.896685641     -1264.088242747        12.895231541
        24           24.000000         3.865984605       301.762434199     -1268.037027108     -1264.159758170        12.252435431
        25           25.000000         3.696576480       288.539151233     -1267.766740802     -1264.058520363        12.208306216
        26           26.000000         3.983820611       310.960215262     -1268.113162610     -1264.117350168        12.269688513
        27           27.000000         3.949980818       308.318823891     -1268.130305744     -1264.167952378        12.899282768
        28           28.000000         3.619541419       282.526119669     -1267.706891011     -1264.074599237        12.903269894
        29           29.000000         3.943291718       307.796700976     -1268.183481773     -1264.227089676        12.895245869
        30           30.000000         4.006594373       312.737838976     -1268.258775582     -1264.238697979        12.887999374
        31           31.000000         4.035621440       315.003569246     -1268.282500808     -1264.232974708        12.890769869
        32           32.000000         4.035183842       314.969412145     -1268.339400423     -1264.289848408        12.953132018
        33           33.000000         3.672106429       286.629122373     -1267.814574439     -1264.127626762        12.948668368
        34           34.000000         3.988319294       311.311363426     -1268.205302452     -1264.201687760        12.907331891
        35           35.000000         4.168003099       325.336722507     -1268.395319415     -1264.211508672        12.892338578
        36           36.000000         3.912534395       305.395914251     -1268.046907228     -1264.118000095        12.870167609
        37           37.000000         4.017409971       313.582058846     -1268.243500008     -1264.209137219        12.896078385
        38           38.000000         3.887846050       303.468846281     -1268.044512658     -1264.139104291        12.911171447
        39           39.000000         4.020074016       313.790002978     -1268.196777520     -1264.158513648        12.915054485
        40           40.000000         4.142533140       323.348645120     -1268.402712666     -1264.241302639        12.897769421
        41           41.000000         3.670979919       286.541191792     -1267.822167116     -1264.131605345        12.874651790
        42           42.000000         3.790140586       295.842370281     -1268.038316687     -1264.227938078        12.931007937
        43           43.000000         3.979923722       310.656040548     -1268.248338822     -1264.247500506        13.549293619
        44           44.000000         3.942136567       307.706534741     -1268.063003785     -1264.099238471        12.212959725
        45           45.000000         4.060145350       316.917802075     -1268.291873500     -1264.209350932        12.908945113
        46           46.000000         3.709674733       289.561545589     -1267.813481686     -1264.080668904        12.924695827
        47           47.000000         3.777879068       294.885287958     -1267.935991243     -1264.134254362        12.915811263
        48           48.000000         4.076972652       318.231270259     -1268.351223405     -1264.249642685        12.891036842
        49           49.000000         3.770196328       294.285605756     -1267.920132345     -1264.124544042        12.920117069
        50           50.000000         3.789364435       295.781787219     -1268.004570711     -1264.189062814        12.897045244
        51           51.000000         3.789379667       295.782976169     -1267.994336847     -1264.178068917        12.942522611
        52           52.000000         3.842321053       299.915357204     -1268.016553470     -1264.146601019        12.927582067
        53           53.000000         4.170857508       325.559525662     -1268.441885316     -1264.242606086        12.929589417
        54           54.000000         3.816782746       297.921944775     -1268.005777082     -1264.159732402        12.879197855
        55           55.000000         3.721506939       290.485117656     -1267.908267871     -1264.156701721        12.926792510
        56           56.000000         3.988788511       311.347988512     -1268.285351993     -1264.265701288        12.897539992
        57           57.000000         3.873936044       302.383089904     -1268.050254467     -1264.144614555        12.890071448
        58           58.000000         3.969771550       309.863604892     -1268.222217486     -1264.219887632        12.908247672
        59           59.000000         3.775196605       294.675906272     -1268.006545058     -1264.197925332        12.932620943
        60           60.000000         3.679731290       287.224286866     -1267.857985525     -1264.144006360        12.945307769
        61           61.000000         4.099910776       320.021723350     -1268.396239313     -1264.261236839        12.936734907
        62           62.000000         3.908163605       305.054748832     -1268.103281533     -1264.159117242        12.922220722
        63           63.000000         3.755489834       293.137678885     -1267.947091624     -1264.154713843        12.998792034
        64           64.000000         3.821848132       298.317327443     -1268.063419499     -1264.203814839        12.989565108
        65           65.000000         3.755099973       293.107248031     -1267.910677442     -1264.116956658        12.970331457
        66           66.000000         4.079217884       318.406523538     -1268.341506999     -1264.222779183        12.984649155
        67           67.000000         3.909029448       305.122332871     -1268.133688027     -1264.184202771        12.988917448
        68           68.000000         3.625070562       282.957701256     -1267.772792436     -1264.106360184        12.945102811
        69           69.000000         3.924680095       306.343956301     -1268.144337769     -1264.177413587        12.971705638
        70           70.000000         3.883492126       303.128997317     -1268.011533237     -1264.084872989        12.999228135
        71           71.000000         3.915094199       305.595721721     -1268.066007134     -1264.106808341        12.952745352
        72           72.000000         3.865617169       301.733753678     -1268.048536793     -1264.137864669        12.320261799
        73           73.000000         3.626331544       283.056128139     -1267.704974021     -1264.032669059        12.943653148
        74           74.000000         4.028432804       314.442454623     -1268.227057050     -1264.151736231        12.958203495
        75           75.000000         4.055422153       316.549129233     -1268.245813005     -1264.142504116        12.967573732
        76           76.000000         3.781195606       295.144162949     -1267.900640354     -1264.070550675        12.967667464
        77           77.000000         3.856512771       301.023102822     -1268.060955084     -1264.154566203        13.029889729
        78           78.000000         3.731330660       291.251915793     -1267.859305469     -1264.077121655        12.925234437
        79           79.000000         3.941011104       307.618685854     -1268.121227190     -1264.128385264        12.958182346
        80           80.000000         3.992423667       311.631733483     -1268.210805768     -1264.165520340        12.248618536
        81           81.000000         3.622721381       282.774334089     -1267.722326679     -1264.045731040        12.938235618
        82           82.000000         3.861466170       301.409744231     -1267.993255992     -1264.076945054        12.934566524
        83           83.000000         3.974643792       310.243911512     -1268.095802080     -1264.065292829        12.921007633
        84           84.000000         3.926752569       306.505724884     -1267.998146776     -1264.014472870        12.916865475
        85           85.000000         3.982526850       310.859229704     -1268.132251795     -1264.091722733        12.286224663
        86           86.000000         3.676509108       286.972776923     -1267.777705015     -1264.042124388        12.983296223
        87           87.000000         3.871388676       302.184253171     -1268.064575245     -1264.133077885        12.977633394
        88           88.000000         4.063080102       317.146876465     -1268.248527753     -1264.124238695        12.968627173
        89           89.000000         3.744775017       292.301325521     -1267.791643656     -1263.984541593        12.946023215
        90           90.000000         3.810971387       297.468334644     -1267.889997153     -1264.015622590        12.964433257
        91           91.000000         3.787515819       295.637492079     -1267.841729530     -1263.989733026        12.996102702
        92           92.000000         3.873280976       302.331958111     -1267.921189292     -1263.982345830        12.979739465
        93           93.000000         4.075956589       318.151960619     -1268.190059831     -1264.047404834        13.649493933
        94           94.000000         3.699135016       288.738859745     -1267.658867380     -1263.891886921        12.965061799
        95           95.000000         3.754592849       293.067664085     -1267.702717744     -1263.879193416        12.984179154
        96           96.000000         3.990577670       311.487642758     -1267.996749710     -1263.936121461        12.951424100
        97           97.000000         3.859495981       301.255959558     -1267.808477876     -1263.877772664        12.983942151
        98           98.000000         3.927193900       306.540173249     -1267.952001244     -1263.952436551        12.963413663
        99           99.000000         3.707504831       289.392172167     -1267.676858998     -1263.895831235        12.941007767
       100          100.000000         3.723450931       290.636857410     -1267.675904720     -1263.877826467        12.989634927
       101          101.000000         4.056891882       316.663850107     -1268.117929636     -1263.985266560        12.948168281
       102          102.000000         3.798236782       296.474325176     -1267.802403346     -1263.927208653        12.273185637
       103          103.000000         3.745303526       292.342578723     -1267.774338353     -1263.950937392        12.310704172
       104          104.000000         3.818923212       298.089020566     -1267.878680849     -1263.980530352        12.934639022
       105          105.000000         3.797292176       296.400593236     -1267.807259807     -1263.929606549        12.294014614
       106          106.000000         4.038997344       315.267078028     -1268.127801785     -1264.007275948        12.319252800
       107          107.000000         3.769416579       294.224741815     -1267.869442260     -1264.017304085        12.986728732
       108          108.000000         3.621803289       282.702671728     -1267.711946746     -1264.006300382        12.991860468
       109          109.000000         3.919286932       305.922988718     -1268.108127484     -1264.103882958        12.968932968
       110          110.000000         3.838616053       299.626160585     -1267.952018142     -1264.027288975        12.952551033
       111          111.000000         3.899352970       304.367027807     -1268.055434183     -1264.068809857        12.979536224
       112          112.000000         3.841761170       299.871655143     -1268.000530045     -1264.070327536        12.979869239
       113          113.000000         3.735750468       291.596907314     -1267.821836989     -1263.996498501        12.979567293
       114          114.000000         4.120088511       321.596712156     -1268.324058583     -1264.113199581        12.980894275
       115          115.000000         4.001986816       312.378192497     -1268.154267056     -1264.060239447        12.954229578
       116          116.000000         3.786910661       295.590256031     -1267.939304990     -1264.059102692        12.961453877
       117          117.000000         3.895627495       304.076232959     -1268.147337317     -1264.157184742        13.622011919
       118          118.000000         3.801078648       296.696149239     -1267.985924481     -1264.089076998        13.584155928
       119          119.000000         3.988366743       311.315067098     -1268.184934876     -1264.099539284        12.911266439
       120          120.000000         3.922376482       306.164145978     -1268.183384427     -1264.162673706        13.587798674
       121          121.000000         3.658617049       285.576198386     -1267.815549804     -1264.057334339        13.599519856
       122          122.000000         3.951477386       308.435639670     -1268.219479651     -1264.167155497        13.610900525
       123          123.000000         3.963811530       309.398390882     -1268.195026032     -1264.129052019        13.648158174
       124          124.000000         3.884876770       303.237076771     -1268.073983842     -1264.085615660        12.972128689
       125          125.000000         3.889685135       303.612397439     -1268.085513511     -1264.091008087        12.971502341
       126          126.000000         3.673093472       286.706166812     -1267.763794846     -1263.984582929        12.989805277
       127          127.000000         3.925532434       306.410486267     -1268.092296226     -1264.059361662        12.325933006
       128          128.000000         3.983865738       310.963737646     -1268.185896515     -1264.093278962        12.922591019
       129          129.000000         3.721206949       290.461701687     -1267.817303369     -1263.986008443        12.274823371
       130          130.000000         3.861978861       301.449762674     -1268.097665040     -1264.124296235        12.941182051
       131          131.000000         3.836054413       299.426209788     -1268.025994150     -1264.077227565        12.942236271
       132          132.000000         3.929624906       306.729927369     -1268.128248490     -1264.084575213        12.894612443
       133          133.000000         4.012863660       313.227192992     -1268.290575528     -1264.162278651        12.244898345
       134          134.000000         3.703714747       289.096334273     -1267.875999305     -1264.055481389        12.948396675
       135          135.000000         3.877907353       302.693073576     -1268.055159096     -1264.059118016        12.278026756
       136          136.000000         4.007423870       312.802585996     -1268.201404536     -1264.074456979        12.914292231
       137          137.000000         3.864965018       301.682849478     -1267.995372825     -1264.009470173        12.923380457
       138          138.000000         3.936991767       307.304953381     -1268.094929322     -1264.035589113        12.228157677
       139          139.000000         3.752876489       292.933692243     -1267.843040980     -1263.966413872        12.926191848
       140          140.000000         3.854379899       300.856619854     -1267.959860557     -1263.980354697        12.949531309
       141          141.000000         4.070898022       317.757110294     -1268.245277387     -1264.047816316        12.898942992
       142          142.000000         3.815217911       297.799800413     -1267.933185567     -1263.989941816        12.920229662
       143          143.000000         3.896862359       304.172621271     -1268.068384404     -1264.042064439        12.891646661
       144          144.000000         3.973025449       310.117590488     -1268.164220854     -1264.060267917        12.939117584
       145          145.000000         3.941560722       307.661586716     -1268.099351017     -1264.025363083        12.927363541
       146          146.000000         4.086291232       318.958639257     -1268.302785590     -1264.082523442        12.895587962
       147          147.000000         3.815593294       297.829101249     -1267.954185792     -1264.003066273        12.899144221
       148          148.000000         3.807728484       297.215207344     -1267.941043046     -1263.996290104        12.876760963
       149          149.000000         4.034114757       314.885963937     -1268.277615374     -1264.104940054        12.854583897
       150          150.000000         3.887188599       303.417528390     -1268.054632678     -1264.027306662        12.865008622
       151          151.000000         3.951007256       308.398943277     -1268.171974651     -1264.079259981        12.881478932
       152          152.000000         3.891223789       303.732498267     -1268.099900122     -1264.065384545        12.861054815
       153          153.000000         3.845025102       300.126423852     -1268.044978797     -1264.055094545        12.881236486
       154          154.000000         4.074160617       318.011774661     -1268.370684700     -1264.150059127        12.897784837
       155          155.000000         3.836506724       299.461515289     -1268.116183851     -1264.131579571        12.857443858
       156          156.000000         3.744958886       292.315677613     -1267.999233590     -1264.104617040        12.887849964
       157          157.000000         3.883130009       303.100731976     -1268.163176512     -1264.128840498        12.835809674
       158          158.000000         3.803448263       296.881111363     -1268.020956532     -1264.064747355        12.855016325
       159          159.000000         3.949899112       308.312446242     -1268.262542646     -1264.158324975        12.899925314
       160          160.000000         3.834342319       299.292570919     -1268.088840720     -1264.098609947        12.211548720
       161          161.000000         3.724753582       290.738536850     -1267.930933416     -1264.048777556        12.858901411
       162          162.000000         4.015149038       313.405579986     -1268.317946370     -1264.143868649        12.866860002
       163          163.000000         3.922308658       306.158851890     -1268.187096842     -1264.104278965        12.855506100
       164          164.000000         3.867847820       301.907868833     -1268.105425000     -1264.075510541        12.892124515
       165          165.000000         3.899273739       304.360843444     -1268.196967099     -1264.134078069        12.909799661
       166          166.000000         3.798054138       296.460068776     -1268.028765227     -1264.065564813        12.861221779
       167          167.000000         4.038933209       315.262071945     -1268.346371816     -1264.140746413        12.863809887
       168          168.000000         3.959779662       309.083680300     -1268.223158307     -1264.095089462        12.818625998
       169          169.000000         3.740835900       291.993854667     -1267.947071370     -1264.036402184        12.871123351
       170          170.000000         3.906557302       304.929367618     -1268.172326780     -1264.094427440        12.837369408
       171          171.000000         3.868105457       301.927978906     -1268.078725532     -1264.037750741        12.872039013
       172          172.000000         3.931902187       306.907682267     -1268.165053662     -1264.058757085        12.869736124
       173          173.000000         3.923062871       306.217722595     -1268.186142404     -1264.087148541        12.853820566
       174          174.000000         3.700445083       288.841118084     -1267.882847083     -1264.004984554        12.824364860
       175          175.000000         3.926769344       306.507034237     -1268.192223814     -1264.086583248        12.827002022
       176          176.000000         3.953339004       308.580949734     -1268.215909470     -1264.082201813        12.797027852
       177          177.000000         3.791983132       295.986191692     -1268.011747661     -1264.037923538        12.826654032
       178          178.000000         3.829127272       298.885506416     -1268.103399712     -1264.091005162        12.797826570
       179          179.000000         3.692341496       288.208586327     -1267.903377557     -1264.026385105        12.818375375
       180          180.000000         3.855457452       300.940729033     -1268.113293990     -1264.071836916        12.815905582
       181          181.000000         3.958095220       308.952199807     -1268.261873960     -1264.116399832        12.838335924
       182          182.000000         3.711853399       289.731603024     -1267.931603882     -1264.031021277        12.859044053
       183          183.000000         3.830904021       299.024191913     -1268.108704921     -1264.087778812        12.848399807
       184          184.000000         3.863028114       301.531662934     -1268.127640164     -1264.073294000        12.891063944
       185          185.000000         3.840349112       299.761435840     -1268.081683418     -1264.048734579        12.887141388
       186          186.000000         3.916767183       305.726307798     -1268.207811261     -1264.097170670        12.175801087
       187          187.000000         3.673965585       286.774240282     -1267.888713379     -1264.019639777        12.148711104
       188          188.000000         3.769826233       294.256717669     -1267.985136452     -1264.019034688        12.197030548
       189          189.000000         3.949677135       308.295119710     -1268.189890444     -1264.042758281        12.215048462
       190          190.000000         3.801232928       296.708191698     -1267.975973119     -1263.976106401        12.167371843
       191          191.000000         3.857296940       301.084311751     -1268.033843501     -1263.976770222        12.167485073
       192          192.000000         3.780458296       295.086611610     -1267.893332555     -1263.911977621        12.156021327
       193          193.000000         3.796462819       296.335857118     -1267.874400897     -1263.875958756        12.815271985
       194          194.000000         3.967504072       309.686615120     -1268.134866971     -1263.964298559        12.810577866
       195          195.000000         3.744803533       292.303551398     -1267.831471064     -1263.882528955        12.209395044
       196          196.000000         3.746493315       292.435448649     -1267.847826613     -1263.896183366        12.176329367
       197          197.000000         3.859387381       301.247482713     -1267.998567076     -1263.933037597        12.801417578
       198          198.000000         3.795615475       296.269717004     -1267.917792897     -1263.915055867        12.828763768
       199          199.000000         3.906139723       304.896773115     -1268.126390843     -1264.012167452        12.827304512
       200          200.000000         3.743593955       292.209136850     -1267.933946582     -1263.981325301        12.194382809
       201          201.000000         3.683082392       287.485859731     -1267.848873129     -1263.955881233        12.196841225
       202          202.000000         3.896646239       304.155751827     -1268.126907896     -1264.019493820        12.191613741
       203          203.000000         3.776440260       294.772980719     -1267.944355177     -1263.956292364        12.177632004
       204          204.000000         3.781353467       295.156484911     -1267.973294395     -1263.979502983        12.174784765
       205          205.000000         3.781834381       295.194023000     -1268.008447027     -1264.013386977        12.188613292
       206          206.000000         3.695487112       288.454119820     -1267.872252557     -1263.962790327        12.127620835
       207          207.000000         3.881764442       302.994141612     -1268.151208252     -1264.054746910        12.189895924
       208          208.000000         3.750937481       292.782341477     -1267.979266394     -1264.012919649        12.162821952
       209          209.000000         3.635080015       283.738996867     -1267.821113144     -1263.969965758        12.151957810
       210          210.000000         3.790085974       295.838107501     -1268.036125640     -1264.029357991        12.192122500
       211          211.000000         3.728446418       291.026784063     -1267.874903953     -1263.929181974        12.175644446
       212          212.000000         3.819954328       298.169505112     -1268.036574096     -1263.998779105        12.785811484
       213          213.000000         3.808241920       297.255283996     -1268.031413130     -1264.004778447        12.805777106
       214          214.000000         3.667344664       286.257439103     -1267.804980615     -1263.918723254        12.201453257
       215          215.000000         3.872012527       302.232948312     -1268.098688499     -1264.007276057        12.810990743
       216          216.000000         3.845477934       300.161770030     -1268.087007238     -1264.021641072        12.813372057
       217          217.000000         3.769059676       294.196883449     -1267.986155054     -1263.996736379        12.785118461
       218          218.000000         3.850436194       300.548790889     -1268.150356792     -1264.079111363        12.781890202
       219          219.000000         3.757860680       293.322737147     -1268.000611954     -1264.021504861        12.802247420
       220          220.000000         3.899749726       304.397996947     -1268.182938356     -1264.061522810        12.861687649
       221          221.000000         3.923002459       306.213007111     -1268.245053689     -1264.099957702        12.800529830
       222          222.000000         3.749296888       292.654283726     -1267.986086727     -1264.014274953        12.823040884
       223          223.000000         3.876850761       302.610600457     -1268.155328551     -1264.055564295        12.856574263
       224          224.000000         3.863588217       301.575382260     -1268.117938275     -1264.031037446        12.791112375
       225          225.000000         3.869279548       302.019623478     -1268.116898343     -1264.023911549        12.825973071
       226          226.000000         3.934816560       307.135165903     -1268.224140121     -1264.065219891        12.848605342
       227          227.000000         3.773177509       294.518304141     -1267.971457339     -1263.973780522        12.790922798